TITLE = "SU2 Simulation"
VARIABLES = "Iteration","CL","CD","CSF","CMx","CMy","CMz","CFx","CFy","CFz","CL/CD","AoA","Custom_ObjFunc","HeatFlux_Total","HeatFlux_Maximum","Temperature_Total","Res_Flow[0]","Res_Flow[1]","Res_Flow[2]","Res_Flow[3]","Res_Flow[4]","Res_Turb[0]","Res_Turb[1]","Linear_Solver_Iterations","CFL_Number","Time(min)"
ZONE T= "Convergence history"
           0, 3.87965592e-01, 3.99455680e-01, 0.00000000e+00, 0.00000000e+00, 0.00000000e+00, 1.41863981e-01, 3.83493660e-01, 4.03750856e-01, 0.00000000e+00, 9.71235637e-01, 2.31000000e+00, 0.00000000e+00, -2.43981832e+05, 2.82372610e+05, 0.00000000e+00, -1.70011403e+00, -1.08191043e+01, -1.11006603e+01, 3.80541079e+00, 0.00000000e+00, -0.0606982586, 5.7148373033, 2.0000000000, 2.5000000000, 0.0040204048
          10, 7.12042855e-01, 6.65422036e-02, 0.00000000e+00, 0.00000000e+00, 0.00000000e+00, 1.57531268e-01, 3.77883992e-02, 7.14146294e-01, 0.00000000e+00, 1.07006203e+01, 2.31000000e+00, 0.00000000e+00, -8.78618097e+04, 9.40917781e+04, 0.00000000e+00, -1.86441914e+00, 8.14609470e-01, 6.11053697e-01, 3.64962535e+00, 0.00000000e+00, -0.3265670105, 5.1646418420, 5.0000000000, 2.5000000000, 0.0464252392
          20, 8.32040072e-01, 5.30357333e-02, 0.00000000e+00, 0.00000000e+00, 0.00000000e+00, 1.33082579e-01, 1.94562747e-02, 8.33501604e-01, 0.00000000e+00, 1.56882920e+01, 2.31000000e+00, 0.00000000e+00, -5.71093135e+04, 6.38186156e+04, 0.00000000e+00, -2.01376903e+00, 7.30850988e-01, 4.79566546e-01, 3.52718117e+00, 0.00000000e+00, -0.5107742585, 4.9141564786, 5.0000000000, 2.5000000000, 0.0896105170
          30, 8.85425694e-01, 4.49665787e-02, 0.00000000e+00, 0.00000000e+00, 0.00000000e+00, 1.32560955e-01, 9.24190664e-03, 8.86518607e-01, 0.00000000e+00, 1.96907508e+01, 2.31000000e+00, 0.00000000e+00, -3.88354218e+04, 4.39820228e+04, 0.00000000e+00, -2.38380305e+00, 3.92053693e-01, 1.66455976e-01, 3.13589283e+00, 0.00000000e+00, -0.6539374014, 4.7218193820, 5.0000000000, 2.5000000000, 0.1345323642
          40, 9.02392677e-01, 4.04893432e-02, 0.00000000e+00, 0.00000000e+00, 0.00000000e+00, 1.34285830e-01, 4.08443508e-03, 9.03291342e-01, 0.00000000e+00, 2.22871651e+01, 2.31000000e+00, 0.00000000e+00, -2.73013331e+04, 3.03864862e+04, 0.00000000e+00, -2.70335814e+00, 1.62440998e-01, -2.60423643e-01, 2.81535522e+00, 0.00000000e+00, -0.7720824991, 4.5654354818, 5.0000000000, 2.5000000000, 0.1761655132
          50, 9.10919122e-01, 3.64795684e-02, 0.00000000e+00, 0.00000000e+00, 0.00000000e+00, 1.33324028e-01, -2.65749709e-04, 9.11649239e-01, 0.00000000e+00, 2.49706661e+01, 2.31000000e+00, 0.00000000e+00, -1.96616832e+04, 2.13268285e+04, 0.00000000e+00, -2.98440450e+00, -7.36318424e-02, -6.19286572e-01, 2.51933286e+00, 0.00000000e+00, -0.8728964666, 4.4277231400, 5.0000000000, 2.5000000000, 0.2176119010
          60, 9.11452645e-01, 3.34784041e-02, 0.00000000e+00, 0.00000000e+00, 0.00000000e+00, 1.33641673e-01, -3.28597954e-03, 9.12061363e-01, 0.00000000e+00, 2.72250924e+01, 2.31000000e+00, 0.00000000e+00, -1.44450246e+04, 1.51957391e+04, 0.00000000e+00, -3.19314140e+00, -3.00356044e-01, -8.93372239e-01, 2.28248542e+00, 0.00000000e+00, -0.9602924825, 4.3249063529, 5.0000000000, 2.5000000000, 0.2674231172
          70, 9.11083804e-01, 3.11167161e-02, 0.00000000e+00, 0.00000000e+00, 0.00000000e+00, 1.32898803e-01, -5.63088172e-03, 9.11597631e-01, 0.00000000e+00, 2.92795615e+01, 2.31000000e+00, 0.00000000e+00, -1.07676288e+04, 1.10082896e+04, 0.00000000e+00, -3.42831694e+00, -4.93111085e-01, -1.09831715e+00, 2.04998394e+00, 0.00000000e+00, -1.0359528106, 4.2391786598, 6.0000000000, 2.5000000000, 0.3247403344
          80, 9.05299911e-01, 2.87193479e-02, 0.00000000e+00, 0.00000000e+00, 0.00000000e+00, 1.30660966e-01, -7.79317513e-03, 9.05721810e-01, 0.00000000e+00, 3.15223003e+01, 2.31000000e+00, 0.00000000e+00, -8.12191868e+03, 8.08767904e+03, 0.00000000e+00, -3.57662397e+00, -6.35175312e-01, -1.24712590e+00, 1.88505257e+00, 0.00000000e+00, -1.1007681671, 4.1542826787, 6.0000000000, 2.5000000000, 0.3705441793
          90, 8.99010049e-01, 2.67940184e-02, 0.00000000e+00, 0.00000000e+00, 0.00000000e+00, 1.29162409e-01, -9.46341978e-03, 8.99359456e-01, 0.00000000e+00, 3.35526399e+01, 2.31000000e+00, 0.00000000e+00, -6.19006921e+03, 6.06135188e+03, 0.00000000e+00, -3.53437529e+00, -7.39110556e-01, -1.29749061e+00, 1.88231312e+00, 0.00000000e+00, -1.1541750862, 4.0820625200, 5.0000000000, 2.5000000000, 0.4133307616
         100, 8.93986504e-01, 2.51910178e-02, 0.00000000e+00, 0.00000000e+00, 0.00000000e+00, 1.27946609e-01, -1.08626378e-02, 8.94275383e-01, 0.00000000e+00, 3.54883043e+01, 2.31000000e+00, 0.00000000e+00, -4.75068556e+03, 4.66373516e+03, 0.00000000e+00, -3.46930981e+00, -8.19513657e-01, -1.33331810e+00, 1.92677552e+00, 0.00000000e+00, -1.1946979156, 4.0218748715, 5.0000000000, 2.5000000000, 0.4563522498
         110, 8.88765389e-01, 2.37541119e-02, 0.00000000e+00, 0.00000000e+00, 0.00000000e+00, 1.26582331e-01, -1.20879328e-02, 8.89000594e-01, 0.00000000e+00, 3.74152229e+01, 2.31000000e+00, 0.00000000e+00, -3.66639314e+03, 3.76825707e+03, 0.00000000e+00, -3.47106663e+00, -8.81550574e-01, -1.39039292e+00, 1.91721197e+00, 0.00000000e+00, -1.2227364751, 3.9686245566, 5.0000000000, 2.5000000000, 0.4975177725
         120, 8.83587085e-01, 2.25183647e-02, 0.00000000e+00, 0.00000000e+00, 0.00000000e+00, 1.25402543e-01, -1.31139582e-02, 8.83776690e-01, 0.00000000e+00, 3.92385104e+01, 2.31000000e+00, 0.00000000e+00, -2.84504248e+03, 3.33212029e+03, 0.00000000e+00, -3.48865488e+00, -9.31208416e-01, -1.46722008e+00, 1.89919192e+00, 0.00000000e+00, -1.2390220593, 3.9213458338, 5.0000000000, 2.5000000000, 0.5404317458
         130, 8.79567960e-01, 2.15034766e-02, 0.00000000e+00, 0.00000000e+00, 0.00000000e+00, 1.24670525e-01, -1.39660259e-02, 8.79719925e-01, 0.00000000e+00, 4.09035235e+01, 2.31000000e+00, 0.00000000e+00, -2.21990305e+03, 3.19719459e+03, 0.00000000e+00, -3.51187822e+00, -9.74065842e-01, -1.54001966e+00, 1.87669521e+00, 0.00000000e+00, -1.2428802898, 3.8742337846, 5.0000000000, 2.5000000000, 0.5851747990
         140, 8.76023453e-01, 2.05806360e-02, 0.00000000e+00, 0.00000000e+00, 0.00000000e+00, 1.23884501e-01, -1.47452511e-02, 8.76141102e-01, 0.00000000e+00, 4.25654219e+01, 2.31000000e+00, 0.00000000e+00, -1.74105066e+03, 3.20761614e+03, 0.00000000e+00, -3.56102693e+00, -1.01503677e+00, -1.59052666e+00, 1.82803785e+00, 0.00000000e+00, -1.2324300890, 3.8251822619, 5.0000000000, 2.5000000000, 0.6314562758
         150, 8.71554718e-01, 1.96580715e-02, 0.00000000e+00, 0.00000000e+00, 0.00000000e+00, 1.22691180e-01, -1.54869481e-02, 8.71638813e-01, 0.00000000e+00, 4.43357181e+01, 2.31000000e+00, 0.00000000e+00, -1.37523670e+03, 3.25563785e+03, 0.00000000e+00, -3.60625624e+00, -1.05268227e+00, -1.59714335e+00, 1.78333329e+00, 0.00000000e+00, -1.2060286463, 3.7802124581, 5.0000000000, 2.5000000000, 0.6739867409
         160, 8.66472109e-01, 1.88059950e-02, 0.00000000e+00, 0.00000000e+00, 0.00000000e+00, 1.21453470e-01, -1.61334716e-02, 8.66525990e-01, 0.00000000e+00, 4.60742496e+01, 2.31000000e+00, 0.00000000e+00, -1.09608114e+03, 3.28734451e+03, 0.00000000e+00, -3.57859227e+00, -1.08601432e+00, -1.58896647e+00, 1.80445445e+00, 0.00000000e+00, -1.1661590327, 3.7381039833, 5.0000000000, 2.5000000000, 0.7152355472
         170, 8.62011513e-01, 1.80976391e-02, 0.00000000e+00, 0.00000000e+00, 0.00000000e+00, 1.20525684e-01, -1.66614624e-02, 8.62040468e-01, 0.00000000e+00, 4.76311584e+01, 2.31000000e+00, 0.00000000e+00, -8.78005387e+02, 3.29953896e+03, 0.00000000e+00, -3.54655959e+00, -1.11823538e+00, -1.59534773e+00, 1.83011971e+00, 0.00000000e+00, -1.1189785010, 3.6963628162, 5.0000000000, 2.5000000000, 0.7567498406
         180, 8.58156934e-01, 1.74747012e-02, 0.00000000e+00, 0.00000000e+00, 0.00000000e+00, 1.19714537e-01, -1.71285307e-02, 8.58163913e-01, 0.00000000e+00, 4.91085326e+01, 2.31000000e+00, 0.00000000e+00, -7.05710675e+02, 3.30192835e+03, 0.00000000e+00, -3.54820796e+00, -1.14799621e+00, -1.61679220e+00, 1.82676076e+00, 0.00000000e+00, -1.0729534095, 3.6577378099, 5.0000000000, 2.5000000000, 0.7974435409
         190, 8.54142813e-01, 1.68664555e-02, 0.00000000e+00, 0.00000000e+00, 0.00000000e+00, 1.18769952e-01, -1.75744882e-02, 8.54128538e-01, 0.00000000e+00, 5.06415123e+01, 2.31000000e+00, 0.00000000e+00, -5.70074213e+02, 3.29600261e+03, 0.00000000e+00, -3.56962756e+00, -1.17497491e+00, -1.64678241e+00, 1.80781517e+00, 0.00000000e+00, -1.0308080564, 3.6202340704, 5.0000000000, 2.5000000000, 0.8395768881
         200, 8.49705519e-01, 1.62777620e-02, 0.00000000e+00, 0.00000000e+00, 0.00000000e+00, 1.17722370e-01, -1.79838529e-02, 8.49671122e-01, 0.00000000e+00, 5.22003896e+01, 2.31000000e+00, 0.00000000e+00, -4.66157402e+02, 3.28082014e+03, 0.00000000e+00, -3.58517029e+00, -1.19986334e+00, -1.67162057e+00, 1.79407481e+00, 0.00000000e+00, -0.9885266225, 3.5831943785, 5.0000000000, 2.5000000000, 0.8811476747
         210, 8.45164696e-01, 1.57374766e-02, 0.00000000e+00, 0.00000000e+00, 0.00000000e+00, 1.16705503e-01, -1.83406760e-02, 8.45112212e-01, 0.00000000e+00, 5.37039524e+01, 2.31000000e+00, 0.00000000e+00, -3.83307964e+02, 3.25763490e+03, 0.00000000e+00, -3.58659117e+00, -1.22124086e+00, -1.67877555e+00, 1.79174957e+00, 0.00000000e+00, -0.9432990417, 3.5467740180, 5.0000000000, 2.5000000000, 0.9236523986
         220, 8.40829254e-01, 1.52553993e-02, 0.00000000e+00, 0.00000000e+00, 0.00000000e+00, 1.15774445e-01, -1.86476165e-02, 8.40760863e-01, 0.00000000e+00, 5.51168304e+01, 2.31000000e+00, 0.00000000e+00, -3.16312253e+02, 3.22956993e+03, 0.00000000e+00, -3.59359132e+00, -1.23803610e+00, -1.68575109e+00, 1.78325292e+00, 0.00000000e+00, -0.8936368884, 3.5117879952, 5.0000000000, 2.5000000000, 0.9695387959
         230, 8.36599445e-01, 1.48116041e-02, 0.00000000e+00, 0.00000000e+00, 0.00000000e+00, 1.14863189e-01, -1.89205635e-02, 8.36516603e-01, 0.00000000e+00, 5.64827036e+01, 2.31000000e+00, 0.00000000e+00, -2.61106188e+02, 3.19855119e+03, 0.00000000e+00, -3.61762276e+00, -1.25036287e+00, -1.68222691e+00, 1.76045946e+00, 0.00000000e+00, -0.8361341035, 3.4806641488, 5.0000000000, 2.5000000000, 1.0118478497
         240, 8.32266800e-01, 1.43893459e-02, 0.00000000e+00, 0.00000000e+00, 0.00000000e+00, 1.13916222e-01, -1.91678462e-02, 8.32170460e-01, 0.00000000e+00, 5.78390987e+01, 2.31000000e+00, 0.00000000e+00, -2.15081055e+02, 3.16541961e+03, 0.00000000e+00, -3.64682000e+00, -1.26573241e+00, -1.68689223e+00, 1.73303864e+00, 0.00000000e+00, -0.7699875039, 3.4472070173, 5.0000000000, 2.5000000000, 1.0550010920
         250, 8.27881140e-01, 1.39979426e-02, 0.00000000e+00, 0.00000000e+00, 0.00000000e+00, 1.12975844e-01, -1.93821622e-02, 8.27772587e-01, 0.00000000e+00, 5.91430587e+01, 2.31000000e+00, 0.00000000e+00, -1.78395526e+02, 3.13098753e+03, 0.00000000e+00, -3.66899367e+00, -1.28334058e+00, -1.68559750e+00, 1.71160217e+00, 0.00000000e+00, -0.6929785178, 3.4143292130, 5.0000000000, 2.5000000000, 1.0978611906
         260, 8.23494032e-01, 1.36398674e-02, 0.00000000e+00, 0.00000000e+00, 0.00000000e+00, 1.12058216e-01, -1.95631189e-02, 8.23374611e-01, 0.00000000e+00, 6.03740498e+01, 2.31000000e+00, 0.00000000e+00, -1.49389865e+02, 3.09611575e+03, 0.00000000e+00, -3.68230215e+00, -1.29991727e+00, -1.68221825e+00, 1.69970438e+00, 0.00000000e+00, -0.6092772850, 3.3826646981, 5.0000000000, 2.5000000000, 1.1423380574
         270, 8.19070591e-01, 1.33122136e-02, 0.00000000e+00, 0.00000000e+00, 0.00000000e+00, 1.11154183e-01, -1.97122144e-02, 8.18941559e-01, 0.00000000e+00, 6.15277531e+01, 2.31000000e+00, 0.00000000e+00, -1.26342870e+02, 3.06154365e+03, 0.00000000e+00, -3.68470717e+00, -1.31785593e+00, -1.67141184e+00, 1.69876604e+00, 0.00000000e+00, -0.5346697638, 3.3545074298, 5.0000000000, 2.5000000000, 1.1878215710
         280, 8.14366545e-01, 1.29995688e-02, 0.00000000e+00, 0.00000000e+00, 0.00000000e+00, 1.10194439e-01, -1.98350030e-02, 8.14228734e-01, 0.00000000e+00, 6.26456585e+01, 2.31000000e+00, 0.00000000e+00, -1.08866309e+02, 3.02758249e+03, 0.00000000e+00, -3.66651475e+00, -1.33334905e+00, -1.65521261e+00, 1.71780135e+00, 0.00000000e+00, -0.4845744666, 3.3202414163, 5.0000000000, 2.5000000000, 1.2298391501
         290, 8.09275525e-01, 1.26952964e-02, 0.00000000e+00, 0.00000000e+00, 0.00000000e+00, 1.09161943e-01, -1.99338285e-02, 8.09129586e-01, 0.00000000e+00, 6.37460916e+01, 2.31000000e+00, 0.00000000e+00, -9.53963263e+01, 2.99437593e+03, 0.00000000e+00, -3.63686792e+00, -1.34964822e+00, -1.63306165e+00, 1.74621693e+00, 0.00000000e+00, -0.4502495511, 3.2881991504, 5.0000000000, 2.5000000000, 1.2734393120
         300, 8.03954326e-01, 1.24154963e-02, 0.00000000e+00, 0.00000000e+00, 0.00000000e+00, 1.08122246e-01, -1.99989240e-02, 8.03801434e-01, 0.00000000e+00, 6.47541031e+01, 2.31000000e+00, 0.00000000e+00, -8.53189679e+01, 2.96242244e+03, 0.00000000e+00, -3.61181061e+00, -1.35665425e+00, -1.62079186e+00, 1.76960813e+00, 0.00000000e+00, -0.4167228026, 3.2613485055, 5.0000000000, 2.5000000000, 1.3183690548
         310, 7.98490726e-01, 1.21647279e-02, 0.00000000e+00, 0.00000000e+00, 0.00000000e+00, 1.07093624e-01, -2.00292718e-02, 7.98332167e-01, 0.00000000e+00, 6.56398348e+01, 2.31000000e+00, 0.00000000e+00, -7.94020663e+01, 2.93207340e+03, 0.00000000e+00, -3.59575163e+00, -1.35563651e+00, -1.61475535e+00, 1.78404902e+00, 0.00000000e+00, -0.3919022325, 3.2311039891, 5.0000000000, 2.5000000000, 1.3628088514
         320, 7.92813861e-01, 1.19294609e-02, 0.00000000e+00, 0.00000000e+00, 0.00000000e+00, 1.06036934e-01, -2.00355348e-02, 7.92650432e-01, 0.00000000e+00, 6.64584816e+01, 2.31000000e+00, 0.00000000e+00, -7.77245289e+01, 2.90340574e+03, 0.00000000e+00, -3.57094408e+00, -1.35257233e+00, -1.60615075e+00, 1.80701931e+00, 0.00000000e+00, -0.3691757644, 3.2041317889, 5.0000000000, 2.5000000000, 1.4068714062
         330, 7.86957073e-01, 1.17149556e-02, 0.00000000e+00, 0.00000000e+00, 0.00000000e+00, 1.04970067e-01, -2.00138010e-02, 7.86789758e-01, 0.00000000e+00, 6.71754207e+01, 2.31000000e+00, 0.00000000e+00, -7.99644350e+01, 2.87665520e+03, 0.00000000e+00, -3.54820843e+00, -1.35264721e+00, -1.59696195e+00, 1.82722165e+00, 0.00000000e+00, -0.3460121301, 3.1764334736, 5.0000000000, 2.5000000000, 1.4519491752
         340, 7.80719433e-01, 1.15143213e-02, 0.00000000e+00, 0.00000000e+00, 0.00000000e+00, 1.03844916e-01, -1.99628568e-02, 7.80549099e-01, 0.00000000e+00, 6.78042078e+01, 2.31000000e+00, 0.00000000e+00, -8.31504577e+01, 2.85207660e+03, 0.00000000e+00, -3.52736921e+00, -1.35872957e+00, -1.56659367e+00, 1.84897190e+00, 0.00000000e+00, -0.3268863040, 3.1495850979, 5.0000000000, 2.5000000000, 1.4971643726
         350, 7.73763193e-01, 1.13123623e-02, 0.00000000e+00, 0.00000000e+00, 0.00000000e+00, 1.02584074e-01, -1.98842722e-02, 7.73590372e-01, 0.00000000e+00, 6.83997890e+01, 2.31000000e+00, 0.00000000e+00, -8.38542642e+01, 2.82966936e+03, 0.00000000e+00, -3.50108688e+00, -1.33329983e+00, -1.52084675e+00, 1.87797443e+00, 0.00000000e+00, -0.3153985857, 3.1234170571, 5.0000000000, 2.5000000000, 1.5393274387
         360, 7.66056577e-01, 1.11123113e-02, 0.00000000e+00, 0.00000000e+00, 0.00000000e+00, 1.01196451e-01, -1.97735364e-02, 7.65881956e-01, 0.00000000e+00, 6.89376456e+01, 2.31000000e+00, 0.00000000e+00, -8.26801420e+01, 2.81100905e+03, 0.00000000e+00, -3.47807779e+00, -1.28505651e+00, -1.47360745e+00, 1.90241336e+00, 0.00000000e+00, -0.3049619175, 3.1007516205, 5.0000000000, 2.5000000000, 1.5831724564
         370, 7.57773353e-01, 1.09321900e-02, 0.00000000e+00, 0.00000000e+00, 0.00000000e+00, 9.97483227e-02, -1.96196461e-02, 7.57598203e-01, 0.00000000e+00, 6.93157869e+01, 2.31000000e+00, 0.00000000e+00, -8.36541713e+01, 2.79916103e+03, 0.00000000e+00, -3.46069794e+00, -1.24676166e+00, -1.41368908e+00, 1.92198552e+00, 0.00000000e+00, -0.2947591288, 3.0968307903, 5.0000000000, 2.5000000000, 1.6258512457
         380, 7.49066163e-01, 1.07723217e-02, 0.00000000e+00, 0.00000000e+00, 0.00000000e+00, 9.82561850e-02, -1.94284309e-02, 7.48891644e-01, 0.00000000e+00, 6.95361856e+01, 2.31000000e+00, 0.00000000e+00, -8.69553685e+01, 2.79542227e+03, 0.00000000e+00, -3.44244901e+00, -1.22754846e+00, -1.37067774e+00, 1.94282215e+00, 0.00000000e+00, -0.2828351917, 3.1125156530, 5.0000000000, 2.5000000000, 1.6688261112
         390, 7.40038615e-01, 1.06329261e-02, 0.00000000e+00, 0.00000000e+00, 0.00000000e+00, 9.67292792e-02, -1.92038472e-02, 7.39865814e-01, 0.00000000e+00, 6.95987733e+01, 2.31000000e+00, 0.00000000e+00, -8.80833386e+01, 2.77111508e+03, 0.00000000e+00, -3.42742848e+00, -1.21599206e+00, -1.35943965e+00, 1.96166664e+00, 0.00000000e+00, -0.2661769796, 3.2227926327, 5.0000000000, 2.5000000000, 1.7104208231
         400, 7.30647284e-01, 1.05074837e-02, 0.00000000e+00, 0.00000000e+00, 0.00000000e+00, 9.51447205e-02, -1.89506590e-02, 7.30477059e-01, 0.00000000e+00, 6.95358951e+01, 2.31000000e+00, 0.00000000e+00, -8.79572697e+01, 2.73207163e+03, 0.00000000e+00, -3.41747569e+00, -1.20837342e+00, -1.38636318e+00, 1.97536261e+00, 0.00000000e+00, -0.2462370328, 3.2796882256, 5.0000000000, 2.5000000000, 1.7518577377
         410, 7.20574129e-01, 1.03788072e-02, 0.00000000e+00, 0.00000000e+00, 0.00000000e+00, 9.34175466e-02, -1.86732205e-02, 7.20406903e-01, 0.00000000e+00, 6.94274511e+01, 2.31000000e+00, 0.00000000e+00, -9.03048703e+01, 2.70279440e+03, 0.00000000e+00, -3.40391640e+00, -1.20137628e+00, -1.41105046e+00, 1.99120797e+00, 0.00000000e+00, -0.2246035875, 3.2410697534, 5.0000000000, 2.5000000000, 1.7958768845
         420, 7.09701302e-01, 1.02360275e-02, 0.00000000e+00, 0.00000000e+00, 0.00000000e+00, 9.15205206e-02, -1.83776420e-02, 7.09537157e-01, 0.00000000e+00, 6.93336654e+01, 2.31000000e+00, 0.00000000e+00, -9.84975377e+01, 2.68265572e+03, 0.00000000e+00, -3.38387964e+00, -1.19605108e+00, -1.40239517e+00, 2.01101973e+00, 0.00000000e+00, -0.2018675224, 3.1855108332, 5.0000000000, 2.5000000000, 1.8378596624
         430, 6.98282143e-01, 1.00965857e-02, 0.00000000e+00, 0.00000000e+00, 0.00000000e+00, 8.95373212e-02, -1.80567077e-02, 6.98121657e-01, 0.00000000e+00, 6.91602253e+01, 2.31000000e+00, 0.00000000e+00, -1.12036073e+02, 2.66540906e+03, 0.00000000e+00, -3.36715688e+00, -1.20206308e+00, -1.36460263e+00, 2.02687195e+00, 0.00000000e+00, -0.1791218930, 3.1438954498, 5.0000000000, 2.5000000000, 1.8808485746
         440, 6.86611050e-01, 9.97119020e-03, 0.00000000e+00, 0.00000000e+00, 0.00000000e+00, 8.75298683e-02, -1.77115841e-02, 6.86454993e-01, 0.00000000e+00, 6.88594878e+01, 2.31000000e+00, 0.00000000e+00, -1.28985301e+02, 2.64877454e+03, 0.00000000e+00, -3.36296968e+00, -1.22142329e+00, -1.32089369e+00, 2.03107731e+00, 0.00000000e+00, -0.1583605320, 3.1661362024, 5.0000000000, 2.5000000000, 1.9222022494
         450, 6.74855165e-01, 9.86323728e-03, 0.00000000e+00, 0.00000000e+00, 0.00000000e+00, 8.55235326e-02, -1.73456144e-02, 6.74704311e-01, 0.00000000e+00, 6.84212643e+01, 2.31000000e+00, 0.00000000e+00, -1.41390484e+02, 2.63304965e+03, 0.00000000e+00, -3.35769350e+00, -1.24161811e+00, -1.28262182e+00, 2.03920445e+00, 0.00000000e+00, -0.1404115430, 3.2164879248, 5.0000000000, 2.5000000000, 1.9629918694
         460, 6.63252739e-01, 9.75910877e-03, 0.00000000e+00, 0.00000000e+00, 0.00000000e+00, 8.35342004e-02, -1.69820088e-02, 6.63107116e-01, 0.00000000e+00, 6.79624292e+01, 2.31000000e+00, 0.00000000e+00, -1.53532404e+02, 2.62214215e+03, 0.00000000e+00, -3.35512886e+00, -1.25875165e+00, -1.26298835e+00, 2.04552611e+00, 0.00000000e+00, -0.1265186745, 3.2476537876, 5.0000000000, 2.5000000000, 2.0066589395
         470, 6.52373828e-01, 9.67490835e-03, 0.00000000e+00, 0.00000000e+00, 0.00000000e+00, 8.16945691e-02, -1.66276534e-02, 6.52233652e-01, 0.00000000e+00, 6.74294582e+01, 2.31000000e+00, 0.00000000e+00, -1.64747907e+02, 2.60784223e+03, 0.00000000e+00, -3.36440125e+00, -1.28270452e+00, -1.28046479e+00, 2.04015364e+00, 0.00000000e+00, -0.1187000437, 3.4382616983, 5.0000000000, 2.5000000000, 2.0650526404
         480, 6.42850204e-01, 9.61609275e-03, 0.00000000e+00, 0.00000000e+00, 0.00000000e+00, 8.01143137e-02, -1.63025603e-02, 6.42715396e-01, 0.00000000e+00, 6.68514979e+01, 2.31000000e+00, 0.00000000e+00, -1.70860664e+02, 2.58989431e+03, 0.00000000e+00, -3.38215266e+00, -1.32208962e+00, -1.32552177e+00, 2.02702028e+00, 0.00000000e+00, -0.1194633329, 3.4384543167, 5.0000000000, 2.5000000000, 2.1132434448
         490, 6.35297699e-01, 9.58887429e-03, 0.00000000e+00, 0.00000000e+00, 0.00000000e+00, 7.89075489e-02, -1.60253439e-02, 6.35167931e-01, 0.00000000e+00, 6.62536268e+01, 2.31000000e+00, 0.00000000e+00, -1.72667702e+02, 2.57409487e+03, 0.00000000e+00, -3.40659148e+00, -1.36961443e+00, -1.35308560e+00, 2.00379036e+00, 0.00000000e+00, -0.1305683175, 3.3327854233, 5.0000000000, 2.5000000000, 2.1604545275
         500, 6.30448774e-01, 9.59923960e-03, 0.00000000e+00, 0.00000000e+00, 0.00000000e+00, 7.82023105e-02, -1.58195454e-02, 6.30323365e-01, 0.00000000e+00, 6.56769495e+01, 2.31000000e+00, 0.00000000e+00, -1.76219700e+02, 2.56294436e+03, 0.00000000e+00, -3.44369399e+00, -1.39865242e+00, -1.35862621e+00, 1.96527331e+00, 0.00000000e+00, -0.1517686902, 3.1733394337, 5.0000000000, 2.5000000000, 2.2051003098
         510, 6.28844122e-01, 9.65951807e-03, 0.00000000e+00, 0.00000000e+00, 0.00000000e+00, 7.81043977e-02, -1.56946385e-02, 6.28722446e-01, 0.00000000e+00, 6.51009830e+01, 2.31000000e+00, 0.00000000e+00, -1.87026791e+02, 2.55428645e+03, 0.00000000e+00, -3.48536026e+00, -1.39082126e+00, -1.38822834e+00, 1.92395320e+00, 0.00000000e+00, -0.1800999420, 3.2900485900, 5.0000000000, 2.5000000000, 2.2487565716
         520, 6.30659527e-01, 9.76997339e-03, 0.00000000e+00, 0.00000000e+00, 0.00000000e+00, 7.86250994e-02, -1.56574450e-02, 6.30540828e-01, 0.00000000e+00, 6.45507927e+01, 2.31000000e+00, 0.00000000e+00, -2.03354300e+02, 2.54897644e+03, 0.00000000e+00, -3.52568151e+00, -1.34818905e+00, -1.44850435e+00, 1.88607157e+00, 0.00000000e+00, -0.2118486434, 3.3168835091, 5.0000000000, 2.5000000000, 2.2911600192
         530, 6.35703387e-01, 9.91319884e-03, 0.00000000e+00, 0.00000000e+00, 0.00000000e+00, 7.96778750e-02, -1.57176347e-02, 6.35586362e-01, 0.00000000e+00, 6.41269681e+01, 2.31000000e+00, 0.00000000e+00, -2.17442166e+02, 2.54484446e+03, 0.00000000e+00, -3.56910002e+00, -1.30927521e+00, -1.51642351e+00, 1.84497754e+00, 0.00000000e+00, -0.2414958774, 3.3372591860, 5.0000000000, 2.5000000000, 2.3328867634
         540, 6.43322063e-01, 1.00720665e-02, 0.00000000e+00, 0.00000000e+00, 0.00000000e+00, 8.11115776e-02, -1.58659759e-02, 6.43205251e-01, 0.00000000e+00, 6.38719041e+01, 2.31000000e+00, 0.00000000e+00, -2.25889858e+02, 2.53823201e+03, 0.00000000e+00, -3.61154437e+00, -1.28616944e+00, -1.54837109e+00, 1.80359746e+00, 0.00000000e+00, -0.2640679262, 3.2977303656, 5.0000000000, 2.5000000000, 2.3747269750
         550, 6.52431853e-01, 1.02296334e-02, 0.00000000e+00, 0.00000000e+00, 0.00000000e+00, 8.27195675e-02, -1.60757179e-02, 6.52313988e-01, 0.00000000e+00, 6.37786155e+01, 2.31000000e+00, 0.00000000e+00, -2.30800160e+02, 2.53331250e+03, 0.00000000e+00, -3.63573410e+00, -1.27976070e+00, -1.53018358e+00, 1.77979809e+00, 0.00000000e+00, -0.2775516936, 3.1889315700, 5.0000000000, 2.5000000000, 2.4168847680
         560, 6.61913538e-01, 1.03717043e-02, 0.00000000e+00, 0.00000000e+00, 0.00000000e+00, 8.43082909e-02, -1.63159330e-02, 6.61793695e-01, 0.00000000e+00, 6.38191680e+01, 2.31000000e+00, 0.00000000e+00, -2.35531103e+02, 2.52895727e+03, 0.00000000e+00, -3.63004443e+00, -1.28657180e+00, -1.49758661e+00, 1.78292710e+00, 0.00000000e+00, -0.2828662187, 3.1551932386, 5.0000000000, 2.5000000000, 2.4602348606
         570, 6.70912675e-01, 1.04956832e-02, 0.00000000e+00, 0.00000000e+00, 0.00000000e+00, 8.57524782e-02, -1.65547758e-02, 6.70790516e-01, 0.00000000e+00, 6.39227256e+01, 2.31000000e+00, 0.00000000e+00, -2.41456446e+02, 2.52426362e+03, 0.00000000e+00, -3.60700698e+00, -1.29929874e+00, -1.47496586e+00, 1.80132778e+00, 0.00000000e+00, -0.2829614773, 3.1724409624, 5.0000000000, 2.5000000000, 2.5062842091
         580, 6.78816315e-01, 1.06044687e-02, 0.00000000e+00, 0.00000000e+00, 0.00000000e+00, 8.69799242e-02, -1.67646442e-02, 6.78692118e-01, 0.00000000e+00, 6.40122892e+01, 2.31000000e+00, 0.00000000e+00, -2.49905912e+02, 2.51920314e+03, 0.00000000e+00, -3.57585642e+00, -1.30791949e+00, -1.47380271e+00, 1.82638113e+00, 0.00000000e+00, -0.2807727294, 3.1515587510, 5.0000000000, 2.5000000000, 2.5486047467
         590, 6.85298255e-01, 1.06967134e-02, 0.00000000e+00, 0.00000000e+00, 0.00000000e+00, 8.79491550e-02, -1.69337368e-02, 6.85172509e-01, 0.00000000e+00, 6.40662446e+01, 2.31000000e+00, 0.00000000e+00, -2.61161760e+02, 2.51408102e+03, 0.00000000e+00, -3.55053049e+00, -1.30692905e+00, -1.49884259e+00, 1.84288785e+00, 0.00000000e+00, -0.2770489965, 3.1236589252, 5.0000000000, 2.5000000000, 2.5916727106
         600, 6.90190376e-01, 1.07731631e-02, 0.00000000e+00, 0.00000000e+00, 0.00000000e+00, 8.86437148e-02, -1.70545319e-02, 6.90063736e-01, 0.00000000e+00, 6.40657132e+01, 2.31000000e+00, 0.00000000e+00, -2.74793250e+02, 2.50925800e+03, 0.00000000e+00, -3.54193496e+00, -1.29865489e+00, -1.55187765e+00, 1.84315437e+00, 0.00000000e+00, -0.2706343352, 3.0821523481, 5.0000000000, 2.5000000000, 2.6349017779
         610, 6.93398323e-01, 1.08311513e-02, 0.00000000e+00, 0.00000000e+00, 0.00000000e+00, 8.90500594e-02, -1.71258909e-02, 6.93271413e-01, 0.00000000e+00, 6.40188937e+01, 2.31000000e+00, 0.00000000e+00, -2.89701536e+02, 2.50497263e+03, 0.00000000e+00, -3.55535250e+00, -1.29063771e+00, -1.63161091e+00, 1.82385940e+00, 0.00000000e+00, -0.2599646822, 3.0467780929, 5.0000000000, 2.5000000000, 2.6756205599
         620, 6.94907423e-01, 1.08693138e-02, 0.00000000e+00, 0.00000000e+00, 0.00000000e+00, 8.91692795e-02, -1.71485854e-02, 6.94780824e-01, 0.00000000e+00, 6.39329615e+01, 2.31000000e+00, 0.00000000e+00, -3.04347071e+02, 2.50141380e+03, 0.00000000e+00, -3.59659076e+00, -1.29065990e+00, -1.73076891e+00, 1.77966717e+00, 0.00000000e+00, -0.2458942220, 3.0545011749, 5.0000000000, 2.5000000000, 2.7237052639
         630, 6.94792684e-01, 1.08883243e-02, 0.00000000e+00, 0.00000000e+00, 0.00000000e+00, 8.90183798e-02, -1.71249657e-02, 6.94666945e-01, 0.00000000e+00, 6.38107998e+01, 2.31000000e+00, 0.00000000e+00, -3.17731030e+02, 2.49869869e+03, 0.00000000e+00, -3.66938189e+00, -1.30681612e+00, -1.82524756e+00, 1.70933049e+00, 0.00000000e+00, -0.2320884388, 3.0433558078, 5.0000000000, 2.5000000000, 2.7645134608
         640, 6.93158294e-01, 1.08939573e-02, 0.00000000e+00, 0.00000000e+00, 0.00000000e+00, 8.86260901e-02, -1.70534613e-02, 6.93034111e-01, 0.00000000e+00, 6.36277779e+01, 2.31000000e+00, 0.00000000e+00, -3.29721272e+02, 2.49688644e+03, 0.00000000e+00, -3.77023627e+00, -1.34002690e+00, -1.88251737e+00, 1.61984622e+00, 0.00000000e+00, -0.2223103171, 2.9823363874, 5.0000000000, 2.5000000000, 2.8100932598
         650, 6.90099856e-01, 1.08849107e-02, 0.00000000e+00, 0.00000000e+00, 0.00000000e+00, 8.80021908e-02, -1.69392266e-02, 6.89977793e-01, 0.00000000e+00, 6.33996803e+01, 2.31000000e+00, 0.00000000e+00, -3.41231011e+02, 2.49592813e+03, 0.00000000e+00, -3.84822894e+00, -1.37821292e+00, -1.86077750e+00, 1.56303654e+00, 0.00000000e+00, -0.2174204222, 2.8831343856, 5.0000000000, 2.5000000000, 2.8586376707
         660, 6.85729721e-01, 1.08609444e-02, 0.00000000e+00, 0.00000000e+00, 0.00000000e+00, 8.71610502e-02, -1.67870300e-02, 6.85610243e-01, 0.00000000e+00, 6.31372097e+01, 2.31000000e+00, 0.00000000e+00, -3.52470943e+02, 2.49569842e+03, 0.00000000e+00, -3.84739816e+00, -1.40112318e+00, -1.78118412e+00, 1.57096430e+00, 0.00000000e+00, -0.2161911243, 2.8530034954, 5.0000000000, 2.5000000000, 2.9069361210
         670, 6.80176913e-01, 1.08240651e-02, 0.00000000e+00, 0.00000000e+00, 0.00000000e+00, 8.61239999e-02, -1.66000667e-02, 6.80060461e-01, 0.00000000e+00, 6.28393220e+01, 2.31000000e+00, 0.00000000e+00, -3.63713332e+02, 2.49603962e+03, 0.00000000e+00, -3.78979536e+00, -1.40013980e+00, -1.70765359e+00, 1.62123643e+00, 0.00000000e+00, -0.2181323367, 2.8872890720, 5.0000000000, 2.5000000000, 2.9522492091
         680, 6.73623439e-01, 1.07761923e-02, 0.00000000e+00, 0.00000000e+00, 0.00000000e+00, 8.49209883e-02, -1.63837551e-02, 6.73510383e-01, 0.00000000e+00, 6.25103394e+01, 2.31000000e+00, 0.00000000e+00, -3.75316585e+02, 2.49675032e+03, 0.00000000e+00, -3.72603323e+00, -1.38089458e+00, -1.65350333e+00, 1.67650515e+00, 0.00000000e+00, -0.2212301658, 2.9685082288, 5.0000000000, 2.5000000000, 2.9998180230
         690, 6.66332987e-01, 1.07226977e-02, 0.00000000e+00, 0.00000000e+00, 0.00000000e+00, 8.36008234e-02, -1.61433560e-02, 6.66223700e-01, 0.00000000e+00, 6.21422899e+01, 2.31000000e+00, 0.00000000e+00, -3.87373032e+02, 2.49774970e+03, 0.00000000e+00, -3.67862329e+00, -1.36072214e+00, -1.61848068e+00, 1.71836226e+00, 0.00000000e+00, -0.2252684799, 2.9812580251, 5.0000000000, 2.5000000000, 3.0454364022
         700, 6.58613476e-01, 1.06674638e-02, 0.00000000e+00, 0.00000000e+00, 0.00000000e+00, 8.22163278e-02, -1.58874010e-02, 6.58508236e-01, 0.00000000e+00, 6.17403996e+01, 2.31000000e+00, 0.00000000e+00, -3.99801960e+02, 2.49892620e+03, 0.00000000e+00, -3.64874775e+00, -1.34860154e+00, -1.59812125e+00, 1.74487232e+00, 0.00000000e+00, -0.2295182560, 2.9706185326, 5.0000000000, 2.5000000000, 3.0915278435
         710, 6.50817164e-01, 1.06145650e-02, 0.00000000e+00, 0.00000000e+00, 0.00000000e+00, 8.08277324e-02, -1.56260171e-02, 6.50716126e-01, 0.00000000e+00, 6.13135970e+01, 2.31000000e+00, 0.00000000e+00, -4.12727612e+02, 2.50023790e+03, 0.00000000e+00, -3.63067807e+00, -1.34891698e+00, -1.58729735e+00, 1.76147461e+00, 0.00000000e+00, -0.2363097832, 2.9324141303, 5.0000000000, 2.5000000000, 3.1329190135