TITLE = "SU2 Simulation"
VARIABLES = "Iteration","CL","CD","CSF","CMx","CMy","CMz","CFx","CFy","CFz","CL/CD","AoA","Custom_ObjFunc","HeatFlux_Total","HeatFlux_Maximum","Temperature_Total","Res_Flow[0]","Res_Flow[1]","Res_Flow[2]","Res_Flow[3]","Res_Flow[4]"," Res_Turb[0]"," Res_Turb[1]"," Res_Turb[2]"," Res_Turb[3]","Linear_Solver_Iterations","CFL_Number","Time(min)"
ZONE T= "Convergence history"
           0, -4.07953221e-01, 1.13662807e-01, 0.00000000e+00, 0.00000000e+00, 0.00000000e+00, -3.05967613e-01, 1.13662807e-01, -4.07953221e-01, 0.00000000e+00, -3.58915314e+00, 0.00000000e+00, 0.00000000e+00, -1.50998968e+07, 1.36025292e+07, 0.00000000e+00, -1.56622260e+01, -6.11260646e+00, -6.31023561e+00, 4.97621321e+00, 0.00000000e+00, 4.6555459533, 4.1118804899, -3.3524892729, 9.7310735136, 1.0000000000, 1.0000000000, 0.0014286399
          10, -1.93088777e-01, 6.02083126e-02, 0.00000000e+00, 0.00000000e+00, 0.00000000e+00, -1.44863988e-01, 6.02083126e-02, -1.93088777e-01, 0.00000000e+00, -3.20701192e+00, 0.00000000e+00, 0.00000000e+00, -3.11669072e+06, 2.80683720e+06, 0.00000000e+00, -1.21904053e+00, 1.66993354e+00, 1.21979256e+00, 4.56946857e+00, 0.00000000e+00, 2.1699723836, 8.6573299592, -0.7183814132, 5.3692515709, 2.0000000000, 1.0010000000, 0.0133787553
          20, -9.35121286e-02, 3.58746831e-02, 0.00000000e+00, 0.00000000e+00, 0.00000000e+00, -7.01611688e-02, 3.58746831e-02, -9.35121286e-02, 0.00000000e+00, -2.60663288e+00, 0.00000000e+00, 0.00000000e+00, -8.47396582e+05, 7.65785975e+05, 0.00000000e+00, -1.29698580e+00, 1.58920863e+00, 1.21541412e+00, 4.46974499e+00, 0.00000000e+00, 1.8922784744, 8.3842325478, -0.9475829532, 4.8151050383, 2.0000000000, 1.0766494523, 0.0247664928
          30, -5.09549904e-02, 2.81323086e-02, 0.00000000e+00, 0.00000000e+00, 0.00000000e+00, -3.82270264e-02, 2.81323086e-02, -5.09549904e-02, 0.00000000e+00, -1.81126232e+00, 0.00000000e+00, 0.00000000e+00, -3.20938882e+05, 3.27844446e+05, 0.00000000e+00, -1.43980595e+00, 1.43059199e+00, 1.12328833e+00, 4.32088817e+00, 0.00000000e+00, 1.6990211438, 8.2089076255, -1.0982031248, 4.6135762010, 2.0000000000, 1.2725109793, 0.0362243136
          40, -3.05546459e-02, 2.44615640e-02, 0.00000000e+00, 0.00000000e+00, 0.00000000e+00, -2.29207437e-02, 2.44615640e-02, -3.05546459e-02, 0.00000000e+00, -1.24908799e+00, 0.00000000e+00, 0.00000000e+00, -1.92514754e+05, 2.32276661e+05, 0.00000000e+00, -1.53839644e+00, 1.32136854e+00, 1.04534850e+00, 4.22113545e+00, 0.00000000e+00, 1.5515097195, 8.0982904352, -1.2165112067, 4.0989349027, 2.0000000000, 1.4314328233, 0.0479033073
          50, -2.03607265e-02, 2.21902382e-02, 0.00000000e+00, 0.00000000e+00, 0.00000000e+00, -1.52730946e-02, 2.21902382e-02, -2.03607265e-02, 0.00000000e+00, -9.17553309e-01, 0.00000000e+00, 0.00000000e+00, -1.70297127e+05, 1.90144808e+05, 0.00000000e+00, -1.61016619e+00, 1.24405465e+00, 9.79142147e-01, 4.14774506e+00, 0.00000000e+00, 1.4435646651, 8.0168163758, -1.3118279828, 3.7170675696, 3.0000000000, 1.5580891374, 0.0596582294
          60, -1.47157473e-02, 2.04907293e-02, 0.00000000e+00, 0.00000000e+00, 0.00000000e+00, -1.10385135e-02, 2.04907293e-02, -1.47157473e-02, 0.00000000e+00, -7.18166109e-01, 0.00000000e+00, 0.00000000e+00, -1.62389128e+05, 1.64838755e+05, 0.00000000e+00, -1.66832994e+00, 1.18317016e+00, 9.21217521e-01, 4.08815403e+00, 0.00000000e+00, 1.3543393766, 7.9484979252, -1.4054091010, 3.7174012717, 3.0000000000, 1.6690737362, 0.0720008055
          70, -1.13431641e-02, 1.91184343e-02, 0.00000000e+00, 0.00000000e+00, 0.00000000e+00, -8.50825020e-03, 1.91184343e-02, -1.13431641e-02, 0.00000000e+00, -5.93310309e-01, 0.00000000e+00, 0.00000000e+00, -1.50700790e+05, 1.46827648e+05, 0.00000000e+00, -1.71737078e+00, 1.13273018e+00, 8.70516860e-01, 4.03774564e+00, 0.00000000e+00, 1.2780543961, 7.8888545128, -1.5036369418, 3.7172660198, 4.0000000000, 1.7678671388, 0.0848813891
          80, -9.01201483e-03, 1.79384588e-02, 0.00000000e+00, 0.00000000e+00, 0.00000000e+00, -6.75917073e-03, 1.79384588e-02, -9.01201483e-03, 0.00000000e+00, -5.02385123e-01, 0.00000000e+00, 0.00000000e+00, -1.39934898e+05, 1.33209148e+05, 0.00000000e+00, -1.75523396e+00, 1.09385140e+00, 8.30501432e-01, 3.99849334e+00, 0.00000000e+00, 1.2131075395, 7.8348792262, -1.6087056615, 3.5945873162, 4.0000000000, 1.8489780324, 0.0977267345
          90, -7.49443340e-03, 1.69262957e-02, 0.00000000e+00, 0.00000000e+00, 0.00000000e+00, -5.62057551e-03, 1.69262957e-02, -7.49443340e-03, 0.00000000e+00, -4.42768667e-01, 0.00000000e+00, 0.00000000e+00, -1.27652757e+05, 1.20022792e+05, 0.00000000e+00, -1.77643173e+00, 1.07109420e+00, 8.06964088e-01, 3.97550340e+00, 0.00000000e+00, 1.1554166309, 7.7863680168, -1.7211457078, 3.5491650636, 4.0000000000, 1.8988971621, 0.1102728327
         100, -6.40892125e-03, 1.60481608e-02, 0.00000000e+00, 0.00000000e+00, 0.00000000e+00, -4.80609566e-03, 1.60481608e-02, -6.40892125e-03, 0.00000000e+00, -3.99355498e-01, 0.00000000e+00, 0.00000000e+00, -1.16327277e+05, 1.08376643e+05, 0.00000000e+00, -1.77787564e+00, 1.06625503e+00, 8.03809363e-01, 3.97108512e+00, 0.00000000e+00, 1.1061118155, 7.7446635618, -1.8345117061, 3.3401844923, 4.0000000000, 1.9014612947, 0.1227134148
         110, -5.71278219e-03, 1.53015945e-02, 0.00000000e+00, 0.00000000e+00, 0.00000000e+00, -4.28416292e-03, 1.53015945e-02, -5.71278219e-03, 0.00000000e+00, -3.73345549e-01, 0.00000000e+00, 0.00000000e+00, -1.06366719e+05, 9.82343236e+04, 0.00000000e+00, -1.76593752e+00, 1.07224972e+00, 8.14672661e-01, 3.97816011e+00, 0.00000000e+00, 1.0638252201, 7.7080932879, -1.9520853040, 3.2024302187, 3.0000000000, 1.8303573734, 0.1350107153
         120, -5.26495483e-03, 1.46715207e-02, 0.00000000e+00, 0.00000000e+00, 0.00000000e+00, -3.94878063e-03, 1.46715207e-02, -5.26495483e-03, 0.00000000e+00, -3.58855426e-01, 0.00000000e+00, 0.00000000e+00, -9.72540840e+04, 8.91776915e+04, 0.00000000e+00, -1.75119626e+00, 1.07917728e+00, 8.28390146e-01, 3.98655335e+00, 0.00000000e+00, 1.0272207568, 7.6104231411, -2.0641369547, 3.1103564035, 3.0000000000, 1.7391048540, 0.1471879164
         130, -4.95186485e-03, 1.41288965e-02, 0.00000000e+00, 0.00000000e+00, 0.00000000e+00, -3.71453018e-03, 1.41288965e-02, -4.95186485e-03, 0.00000000e+00, -3.50477820e-01, 0.00000000e+00, 0.00000000e+00, -8.84823255e+04, 8.09145379e+04, 0.00000000e+00, -1.74151387e+00, 1.08087339e+00, 8.36417401e-01, 3.98965740e+00, 0.00000000e+00, 0.9903010763, 7.7844958546, -2.1643490117, 3.1841249055, 3.0000000000, 1.6782705649, 0.1591266870
         140, -4.73302112e-03, 1.36457725e-02, 0.00000000e+00, 0.00000000e+00, 0.00000000e+00, -3.55030759e-03, 1.36457725e-02, -4.73302112e-03, 0.00000000e+00, -3.46848895e-01, 0.00000000e+00, 0.00000000e+00, -8.00877035e+04, 7.33365951e+04, 0.00000000e+00, -1.74241316e+00, 1.07316411e+00, 8.32930362e-01, 3.98295120e+00, 0.00000000e+00, 0.9530224704, 7.9041890146, -2.2771781687, 3.2563189624, 3.0000000000, 1.6698346985, 0.1712046027
         150, -4.56290856e-03, 1.31997980e-02, 0.00000000e+00, 0.00000000e+00, 0.00000000e+00, -3.42133665e-03, 1.31997980e-02, -4.56290856e-03, 0.00000000e+00, -3.45680182e-01, 0.00000000e+00, 0.00000000e+00, -7.24049194e+04, 6.64773846e+04, 0.00000000e+00, -1.75928243e+00, 1.05084219e+00, 8.13018043e-01, 3.96087133e+00, 0.00000000e+00, 0.9154396378, 7.9659465938, -2.3917432048, 3.3399985855, 3.0000000000, 1.6973798909, 0.1832236290
         160, -4.40701443e-03, 1.27769422e-02, 0.00000000e+00, 0.00000000e+00, 0.00000000e+00, -3.30235245e-03, 1.27769422e-02, -4.40701443e-03, 0.00000000e+00, -3.44919336e-01, 0.00000000e+00, 0.00000000e+00, -6.51006700e+04, 6.00001256e+04, 0.00000000e+00, -1.79427993e+00, 1.01038668e+00, 7.75634195e-01, 3.92021242e+00, 0.00000000e+00, 0.8771610630, 7.9940146998, -2.5108944744, 3.3682201882, 3.0000000000, 1.7628380377, 0.1951960882
         170, -4.26688413e-03, 1.23668566e-02, 0.00000000e+00, 0.00000000e+00, 0.00000000e+00, -3.19454093e-03, 1.23668566e-02, -4.26688413e-03, 0.00000000e+00, -3.45025762e-01, 0.00000000e+00, 0.00000000e+00, -5.82589762e+04, 5.40119123e+04, 0.00000000e+00, -1.85120936e+00, 9.46073505e-01, 7.16303467e-01, 3.85524148e+00, 0.00000000e+00, 0.8377685308, 8.0004232398, -2.6382030521, 3.4007959373, 3.0000000000, 1.8793429030, 0.2073663513
         180, -4.14444669e-03, 1.19602208e-02, 0.00000000e+00, 0.00000000e+00, 0.00000000e+00, -3.09846862e-03, 1.19602208e-02, -4.14444669e-03, 0.00000000e+00, -3.46519244e-01, 0.00000000e+00, 0.00000000e+00, -5.16861829e+04, 4.86083440e+04, 0.00000000e+00, -1.92859629e+00, 8.60934783e-01, 6.34040023e-01, 3.76883651e+00, 0.00000000e+00, 0.7966474625, 7.9903288821, -2.7762884420, 3.4484578360, 3.0000000000, 2.0504162677, 0.2192939003
         190, -4.00653465e-03, 1.15457904e-02, 0.00000000e+00, 0.00000000e+00, 0.00000000e+00, -2.98404055e-03, 1.15457904e-02, -4.00653465e-03, 0.00000000e+00, -3.47012593e-01, 0.00000000e+00, 0.00000000e+00, -4.55547817e+04, 4.38139351e+04, 0.00000000e+00, -2.02964519e+00, 7.54027631e-01, 5.25674157e-01, 3.65915749e+00, 0.00000000e+00, 0.7530384203, 7.9651637657, -2.8828465161, 3.4687543359, 3.0000000000, 2.2976297540, 0.2313437978
         200, -3.84490775e-03, 1.11144847e-02, 0.00000000e+00, 0.00000000e+00, 0.00000000e+00, -2.82845526e-03, 1.11144847e-02, -3.84490775e-03, 0.00000000e+00, -3.45936665e-01, 0.00000000e+00, 0.00000000e+00, -3.96293233e+04, 3.92348527e+04, 0.00000000e+00, -2.15480020e+00, 6.27745726e-01, 3.90907330e-01, 3.52695518e+00, 0.00000000e+00, 0.7060817979, 7.9192557979, -3.0824992358, 3.5017204097, 3.0000000000, 2.6453547802, 0.2434980750
         210, -3.66326039e-03, 1.06589410e-02, 0.00000000e+00, 0.00000000e+00, 0.00000000e+00, -2.60584025e-03, 1.06589410e-02, -3.66326039e-03, 0.00000000e+00, -3.43679581e-01, 0.00000000e+00, 0.00000000e+00, -3.39301249e+04, 3.47897307e+04, 0.00000000e+00, -2.29666448e+00, 4.92204602e-01, 2.37815742e-01, 3.38104316e+00, 0.00000000e+00, 0.6571426856, 7.8195351082, -3.3410664169, 3.4725978840, 3.0000000000, 3.1076211439, 0.2554919044
         220, -3.54773363e-03, 1.01790654e-02, 0.00000000e+00, 0.00000000e+00, 0.00000000e+00, -2.40082414e-03, 1.01790654e-02, -3.54773363e-03, 0.00000000e+00, -3.48532356e-01, 0.00000000e+00, 0.00000000e+00, -2.79106284e+04, 3.01707099e+04, 0.00000000e+00, -2.44523891e+00, 3.58269845e-01, 7.65459181e-02, 3.23172467e+00, 0.00000000e+00, 0.5718482502, 7.7025902079, -3.6867892624, 4.8730894812, 4.0000000000, 3.6893386707, 0.2678088903
         230, -3.74516816e-03, 9.68871016e-03, 0.00000000e+00, 0.00000000e+00, 0.00000000e+00, -2.60962615e-03, 9.68871016e-03, -3.74516816e-03, 0.00000000e+00, -3.86549716e-01, 0.00000000e+00, 0.00000000e+00, -2.06250312e+04, 2.52187123e+04, 0.00000000e+00, -2.59497252e+00, 2.29985433e-01, -8.62140008e-02, 3.08284837e+00, 0.00000000e+00, 0.5254233039, 7.5868096888, -3.9559210988, 3.4808023889, 4.0000000000, 4.3787713177, 0.2803411285
         240, -4.18388849e-03, 9.18173253e-03, 0.00000000e+00, 0.00000000e+00, 0.00000000e+00, -3.21269929e-03, 9.18173253e-03, -4.18388849e-03, 0.00000000e+00, -4.55675274e-01, 0.00000000e+00, 0.00000000e+00, -1.31540333e+04, 1.96932286e+04, 0.00000000e+00, -2.75496497e+00, 1.08982034e-01, -2.71168735e-01, 2.92275609e+00, 0.00000000e+00, 0.4080611909, 7.4732613742, -4.0135960521, 3.5541051800, 5.0000000000, 5.2515064237, 0.2928456823
         250, -4.35060177e-03, 8.62643524e-03, 0.00000000e+00, 0.00000000e+00, 0.00000000e+00, -3.36725559e-03, 8.62643524e-03, -4.35060177e-03, 0.00000000e+00, -5.04333673e-01, 0.00000000e+00, 0.00000000e+00, -7.38130472e+03, 1.57802899e+04, 0.00000000e+00, -2.94627974e+00, 2.39006910e-03, -5.36041330e-01, 2.74110543e+00, 0.00000000e+00, 0.1206723149, 7.3574693531, -4.0293245420, 4.9748578029, 5.0000000000, 6.5342858576, 0.3059274673
         260, -4.39867197e-03, 8.03616535e-03, 0.00000000e+00, 0.00000000e+00, 0.00000000e+00, -3.15583972e-03, 8.03616535e-03, -4.39867197e-03, 0.00000000e+00, -5.47359565e-01, 0.00000000e+00, 0.00000000e+00, -2.98462524e+03, 1.30539860e+04, 0.00000000e+00, -3.10817929e+00, -7.91344528e-02, -8.09776821e-01, 2.60373493e+00, 0.00000000e+00, -1.1749596476, 7.2352281241, -4.0446627265, 5.4574534837, 5.0000000000, 7.9348497866, 0.3193405430
         270, -4.42010798e-03, 7.45806753e-03, 0.00000000e+00, 0.00000000e+00, 0.00000000e+00, -3.14002104e-03, 7.45806753e-03, -4.42010798e-03, 0.00000000e+00, -5.92661298e-01, 0.00000000e+00, 0.00000000e+00, 4.83607280e+02, 1.08499014e+04, 0.00000000e+00, -3.20171533e+00, -1.35488534e-01, -9.80994633e-01, 2.52645985e+00, 0.00000000e+00, -3.4538345375, 7.1142617292, -4.0616103780, 3.4051341591, 6.0000000000, 8.8859403504, 0.3330693285
         280, -4.18273115e-03, 6.91913056e-03, 0.00000000e+00, 0.00000000e+00, 0.00000000e+00, -3.06897857e-03, 6.91913056e-03, -4.18273115e-03, 0.00000000e+00, -6.04516870e-01, 0.00000000e+00, 0.00000000e+00, 2.22443185e+03, 9.17059005e+03, 0.00000000e+00, -3.27195029e+00, -1.73266903e-01, -1.18601515e+00, 2.47254209e+00, 0.00000000e+00, -3.6592677985, 7.0020887018, -4.0768710942, 3.2815675211, 6.0000000000, 9.6253530229, 0.3467021187
         290, -3.79775653e-03, 6.42537748e-03, 0.00000000e+00, 0.00000000e+00, 0.00000000e+00, -2.89616360e-03, 6.42537748e-03, -3.79775653e-03, 0.00000000e+00, -5.91055785e-01, 0.00000000e+00, 0.00000000e+00, 3.34076268e+03, 7.90545671e+03, 0.00000000e+00, -3.32297684e+00, -2.11498134e-01, -1.54956892e+00, 2.42976928e+00, 0.00000000e+00, -3.8116116136, 6.8969084188, -4.0930910647, 3.2024161205, 5.0000000000, 10.2877966907, 0.3592148662
         300, -3.35208811e-03, 5.98632790e-03, 0.00000000e+00, 0.00000000e+00, 0.00000000e+00, -2.61790025e-03, 5.98632790e-03, -3.35208811e-03, 0.00000000e+00, -5.59957317e-01, 0.00000000e+00, 0.00000000e+00, 4.19354505e+03, 7.00157237e+03, 0.00000000e+00, -3.34339466e+00, -2.39510964e-01, -1.46186512e+00, 2.40863973e+00, 0.00000000e+00, -3.8984289573, 6.8006130169, -4.1077109638, 3.1194234053, 6.0000000000, 10.5101901229, 0.3714200099
         310, -2.95405180e-03, 5.59919093e-03, 0.00000000e+00, 0.00000000e+00, 0.00000000e+00, -2.23318906e-03, 5.59919093e-03, -2.95405180e-03, 0.00000000e+00, -5.27585474e-01, 0.00000000e+00, 0.00000000e+00, 5.16081038e+03, 6.46444907e+03, 0.00000000e+00, -3.38570909e+00, -2.81083860e-01, -1.41352788e+00, 2.36269205e+00, 0.00000000e+00, -3.9377293378, 6.7118868313, -4.1210078569, 3.0549323455, 6.0000000000, 10.9801502747, 0.3837248286
         320, -2.72934483e-03, 5.25090308e-03, 0.00000000e+00, 0.00000000e+00, 0.00000000e+00, -2.01833379e-03, 5.25090308e-03, -2.72934483e-03, 0.00000000e+00, -5.19785795e-01, 0.00000000e+00, 0.00000000e+00, 6.69212206e+03, 6.62106786e+03, 0.00000000e+00, -3.43493835e+00, -3.27984399e-01, -1.45581767e+00, 2.30982565e+00, 0.00000000e+00, -3.8928619723, 6.6276970254, -4.1319269132, 3.0196499649, 6.0000000000, 11.6250256239, 0.3962626735
         330, -2.56530539e-03, 4.93201996e-03, 0.00000000e+00, 0.00000000e+00, 0.00000000e+00, -1.92283314e-03, 4.93201996e-03, -2.56530539e-03, 0.00000000e+00, -5.20132807e-01, 0.00000000e+00, 0.00000000e+00, 8.04114558e+03, 7.25866004e+03, 0.00000000e+00, -3.48260466e+00, -3.65924151e-01, -1.67206684e+00, 2.26474305e+00, 0.00000000e+00, -3.9527980326, 6.5475609064, -4.1424471036, 2.9617386414, 6.0000000000, 12.3218681639, 0.4091394504
         340, -2.38023833e-03, 4.64064973e-03, 0.00000000e+00, 0.00000000e+00, 0.00000000e+00, -1.80724861e-03, 4.64064973e-03, -2.38023833e-03, 0.00000000e+00, -5.12910577e-01, 0.00000000e+00, 0.00000000e+00, 8.84889377e+03, 7.92938916e+03, 0.00000000e+00, -3.51206676e+00, -3.94196512e-01, -1.83886874e+00, 2.23748412e+00, 0.00000000e+00, -3.8856647160, 6.4712039657, -4.1493257063, 2.9318809801, 6.0000000000, 12.7689198996, 0.4217775265
         350, -2.17923782e-03, 4.37544283e-03, 0.00000000e+00, 0.00000000e+00, 0.00000000e+00, -1.64235541e-03, 4.37544283e-03, -2.17923782e-03, 0.00000000e+00, -4.98061089e-01, 0.00000000e+00, 0.00000000e+00, 9.33434514e+03, 8.45203324e+03, 0.00000000e+00, -3.54139559e+00, -4.25433753e-01, -1.82046841e+00, 2.20711357e+00, 0.00000000e+00, -3.9607753395, 6.3983206392, -4.1550607150, 2.8666720432, 6.0000000000, 13.2225673707, 0.4340977073
         360, -2.02179263e-03, 4.13352140e-03, 0.00000000e+00, 0.00000000e+00, 0.00000000e+00, -1.51331998e-03, 4.13352140e-03, -2.02179263e-03, 0.00000000e+00, -4.89121123e-01, 0.00000000e+00, 0.00000000e+00, 9.86836262e+03, 8.95397398e+03, 0.00000000e+00, -3.57473499e+00, -4.57946687e-01, -1.87312029e+00, 2.17390081e+00, 0.00000000e+00, -3.9783741564, 6.3283372576, -4.1579331993, 3.5798695271, 6.0000000000, 13.7495337356, 0.4464696805
         370, -1.88549009e-03, 3.91106109e-03, 0.00000000e+00, 0.00000000e+00, 0.00000000e+00, -1.41152740e-03, 3.91106109e-03, -1.88549009e-03, 0.00000000e+00, -4.82091700e-01, 0.00000000e+00, 0.00000000e+00, 1.03046152e+04, 9.36672011e+03, 0.00000000e+00, -3.60606500e+00, -4.88018237e-01, -1.92913016e+00, 2.14316539e+00, 0.00000000e+00, -3.9692600949, 6.2607373613, -4.1639373919, 2.7835128277, 6.0000000000, 14.2412600111, 0.4587589224
         380, -1.76153103e-03, 3.70667458e-03, 0.00000000e+00, 0.00000000e+00, 0.00000000e+00, -1.31620609e-03, 3.70667458e-03, -1.76153103e-03, 0.00000000e+00, -4.75232178e-01, 0.00000000e+00, 0.00000000e+00, 1.06167050e+04, 9.73760700e+03, 0.00000000e+00, -3.63492699e+00, -5.16103953e-01, -2.01040616e+00, 2.11430394e+00, 0.00000000e+00, -3.9979749483, 6.1955027683, -4.1888153929, 3.3992734035, 6.0000000000, 14.7398691839, 0.4711570104
         390, -1.64928089e-03, 3.51847227e-03, 0.00000000e+00, 0.00000000e+00, 0.00000000e+00, -1.22806072e-03, 3.51847227e-03, -1.64928089e-03, 0.00000000e+00, -4.68749153e-01, 0.00000000e+00, 0.00000000e+00, 1.07982041e+04, 1.00959808e+04, 0.00000000e+00, -3.66525662e+00, -5.44387032e-01, -2.05736977e+00, 2.08422456e+00, 0.00000000e+00, -4.0624498282, 6.1322769066, -4.2596288912, 2.7095480010, 6.0000000000, 15.2059554000, 0.4836610675
         400, -1.57245647e-03, 3.34494833e-03, 0.00000000e+00, 0.00000000e+00, 0.00000000e+00, -1.16772105e-03, 3.34494833e-03, -1.57245647e-03, 0.00000000e+00, -4.70098882e-01, 0.00000000e+00, 0.00000000e+00, 1.09539413e+04, 1.06153934e+04, 0.00000000e+00, -3.69563721e+00, -5.71597995e-01, -2.13992822e+00, 2.05435355e+00, 0.00000000e+00, -4.0768126460, 6.0709424295, -4.3955963701, 2.6897362136, 6.0000000000, 15.7125834572, 0.4970241110
         410, -1.48560605e-03, 3.18428852e-03, 0.00000000e+00, 0.00000000e+00, 0.00000000e+00, -1.09956706e-03, 3.18428852e-03, -1.48560605e-03, 0.00000000e+00, -4.66542540e-01, 0.00000000e+00, 0.00000000e+00, 1.10787431e+04, 1.13654828e+04, 0.00000000e+00, -3.72394303e+00, -5.97790964e-01, -2.19326372e+00, 2.02631319e+00, 0.00000000e+00, -4.3594814058, 6.0112392075, -4.5839702707, 2.6321533178, 6.0000000000, 16.1802844501, 0.5103214224
         420, -1.42053911e-03, 3.03579234e-03, 0.00000000e+00, 0.00000000e+00, 0.00000000e+00, -1.04814119e-03, 3.03579234e-03, -1.42053911e-03, 0.00000000e+00, -4.67930264e-01, 0.00000000e+00, 0.00000000e+00, 1.10998206e+04, 1.22767258e+04, 0.00000000e+00, -3.74802541e+00, -6.22148707e-01, -2.19101918e+00, 2.00232119e+00, 0.00000000e+00, -4.2940185826, 5.9531001020, -4.7639817252, 2.6024159467, 6.0000000000, 16.5708383870, 0.5240321517
         430, -1.35857598e-03, 2.89829291e-03, 0.00000000e+00, 0.00000000e+00, 0.00000000e+00, -9.98982538e-04, 2.89829291e-03, -1.35857598e-03, 0.00000000e+00, -4.68750405e-01, 0.00000000e+00, 0.00000000e+00, 1.10991429e+04, 1.32497851e+04, 0.00000000e+00, -3.77418628e+00, -6.46914367e-01, -2.15426518e+00, 1.97618333e+00, 0.00000000e+00, -4.6265681657, 5.8965165157, -4.8942064914, 2.5479282627, 6.0000000000, 16.8659762237, 0.5399222573
         440, -1.30562339e-03, 2.77072400e-03, 0.00000000e+00, 0.00000000e+00, 0.00000000e+00, -9.56773016e-04, 2.77072400e-03, -1.30562339e-03, 0.00000000e+00, -4.71221018e-01, 0.00000000e+00, 0.00000000e+00, 1.10706621e+04, 1.41825839e+04, 0.00000000e+00, -3.78841742e+00, -6.67874869e-01, -2.06135933e+00, 1.96220346e+00, 0.00000000e+00, -4.4989532607, 5.8413146406, -4.9827792644, 2.5218671629, 6.0000000000, 17.1388959171, 0.5528471669
         450, -1.25381339e-03, 2.65172749e-03, 0.00000000e+00, 0.00000000e+00, 0.00000000e+00, -9.15272935e-04, 2.65172749e-03, -1.25381339e-03, 0.00000000e+00, -4.72828899e-01, 0.00000000e+00, 0.00000000e+00, 1.09897974e+04, 1.50194899e+04, 0.00000000e+00, -3.80677865e+00, -6.89605693e-01, -2.17856663e+00, 1.94323525e+00, 0.00000000e+00, -4.2419561805, 5.7873068060, -5.0514613926, 2.6219578667, 6.0000000000, 17.4696922992, 0.5657199899
         460, -1.20578163e-03, 2.54126986e-03, 0.00000000e+00, 0.00000000e+00, 0.00000000e+00, -8.76775330e-04, 2.54126986e-03, -1.20578163e-03, 0.00000000e+00, -4.74479963e-01, 0.00000000e+00, 0.00000000e+00, 1.08983240e+04, 1.57422044e+04, 0.00000000e+00, -3.83929610e+00, -7.13453100e-01, -2.36523022e+00, 1.91131680e+00, 0.00000000e+00, -4.6720619661, 5.7347447926, -5.1121454543, 2.4550875458, 6.0000000000, 18.0374849366, 0.5787960410
         470, -1.16611498e-03, 2.43826541e-03, 0.00000000e+00, 0.00000000e+00, 0.00000000e+00, -8.44664468e-04, 2.43826541e-03, -1.16611498e-03, 0.00000000e+00, -4.78255965e-01, 0.00000000e+00, 0.00000000e+00, 1.07916226e+04, 1.63540286e+04, 0.00000000e+00, -3.86269975e+00, -7.34478383e-01, -2.37269377e+00, 1.88824757e+00, 0.00000000e+00, -4.4494582615, 5.6832817640, -5.1619084551, 2.4942827681, 6.0000000000, 18.4320903985, 0.5917284052
         480, -1.12404241e-03, 2.34189994e-03, 0.00000000e+00, 0.00000000e+00, 0.00000000e+00, -8.10610459e-04, 2.34189994e-03, -1.12404241e-03, 0.00000000e+00, -4.79970296e-01, 0.00000000e+00, 0.00000000e+00, 1.06777532e+04, 1.68596207e+04, 0.00000000e+00, -3.88091458e+00, -7.54876266e-01, -2.24845987e+00, 1.86984359e+00, 0.00000000e+00, -4.2188378120, 5.6327564916, -5.2076710792, 2.3796280281, 6.0000000000, 18.5690329110, 0.6048530976
         490, -1.07876586e-03, 2.25136153e-03, 0.00000000e+00, 0.00000000e+00, 0.00000000e+00, -7.74119081e-04, 2.25136153e-03, -1.07876586e-03, 0.00000000e+00, -4.79161540e-01, 0.00000000e+00, 0.00000000e+00, 1.05494275e+04, 1.72676000e+04, 0.00000000e+00, -3.89408495e+00, -7.73313332e-01, -2.27000020e+00, 1.85629971e+00, 0.00000000e+00, -4.5970897958, 5.5830930036, -5.2521074227, 2.3530706964, 6.0000000000, 18.8923122495, 0.6179864287
         500, -1.03283588e-03, 2.16665662e-03, 0.00000000e+00, 0.00000000e+00, 0.00000000e+00, -7.36979982e-04, 2.16665662e-03, -1.03283588e-03, 0.00000000e+00, -4.76695695e-01, 0.00000000e+00, 0.00000000e+00, 1.04064132e+04, 1.75876505e+04, 0.00000000e+00, -3.92409167e+00, -7.94259390e-01, -2.47025354e+00, 1.82715853e+00, 0.00000000e+00, -4.4629519329, 5.5345795413, -5.2919690216, 2.3445698089, 6.0000000000, 19.4822921657, 0.6307622552
         510, -9.87598229e-04, 2.08740230e-03, 0.00000000e+00, 0.00000000e+00, 0.00000000e+00, -7.00582296e-04, 2.08740230e-03, -9.87598229e-04, 0.00000000e+00, -4.73123092e-01, 0.00000000e+00, 0.00000000e+00, 1.02508731e+04, 1.78309056e+04, 0.00000000e+00, -3.94331689e+00, -8.13421083e-01, -2.36517687e+00, 1.80785921e+00, 0.00000000e+00, -4.2033597900, 5.4869995525, -5.3291405625, 2.3232671323, 6.0000000000, 19.6289423493, 0.6438532233
         520, -9.48779366e-04, 2.01252444e-03, 0.00000000e+00, 0.00000000e+00, 0.00000000e+00, -6.69045739e-04, 2.01252444e-03, -9.48779366e-04, 0.00000000e+00, -4.71437439e-01, 0.00000000e+00, 0.00000000e+00, 1.00917457e+04, 1.80081396e+04, 0.00000000e+00, -3.95134142e+00, -8.29627695e-01, -2.29427583e+00, 1.79926890e+00, 0.00000000e+00, -4.0500206819, 5.4400165945, -5.3637024736, 2.3055066974, 6.0000000000, 19.7797288060, 0.6603243907
         530, -9.12297587e-04, 1.94216955e-03, 0.00000000e+00, 0.00000000e+00, 0.00000000e+00, -6.39094333e-04, 1.94216955e-03, -9.12297587e-04, 0.00000000e+00, -4.69731177e-01, 0.00000000e+00, 0.00000000e+00, 9.92586125e+03, 1.81266635e+04, 0.00000000e+00, -3.97899234e+00, -8.48795423e-01, -2.52712401e+00, 1.77252512e+00, 0.00000000e+00, -4.2489947957, 5.3940705932, -5.4043313034, 2.2429065500, 6.0000000000, 20.3988070554, 0.6795018276
         540, -8.79626064e-04, 1.87582916e-03, 0.00000000e+00, 0.00000000e+00, 0.00000000e+00, -6.12176083e-04, 1.87582916e-03, -8.79626064e-04, 0.00000000e+00, -4.68926532e-01, 0.00000000e+00, 0.00000000e+00, 9.76324249e+03, 1.81943110e+04, 0.00000000e+00, -3.99515474e+00, -8.66415746e-01, -2.40124713e+00, 1.75609540e+00, 0.00000000e+00, -4.1346051726, 5.3487546816, -5.4416952121, 2.2253280380, 6.0000000000, 20.5657456573, 0.6989002903
         550, -8.48934532e-04, 1.81268906e-03, 0.00000000e+00, 0.00000000e+00, 0.00000000e+00, -5.86710681e-04, 1.81268906e-03, -8.48934532e-04, 0.00000000e+00, -4.68328823e-01, 0.00000000e+00, 0.00000000e+00, 9.59466454e+03, 1.82165749e+04, 0.00000000e+00, -4.00602829e+00, -8.82096096e-01, -2.49729328e+00, 1.74498576e+00, 0.00000000e+00, -3.9617627682, 5.3038257230, -5.4763103260, 2.2003284017, 6.0000000000, 20.8779309443, 0.7165321310
         560, -8.21847591e-04, 1.75357028e-03, 0.00000000e+00, 0.00000000e+00, 0.00000000e+00, -5.63887744e-04, 1.75357028e-03, -8.21847591e-04, 0.00000000e+00, -4.68671031e-01, 0.00000000e+00, 0.00000000e+00, 9.43108432e+03, 1.81995406e+04, 0.00000000e+00, -4.02967420e+00, -8.99394772e-01, -2.52719325e+00, 1.72229070e+00, 0.00000000e+00, -3.8016800702, 5.2600430174, -5.5104643458, 2.1865697963, 6.0000000000, 21.2676466613, 0.7355561058
         570, -7.95373009e-04, 1.69723515e-03, 0.00000000e+00, 0.00000000e+00, 0.00000000e+00, -5.41560631e-04, 1.69723515e-03, -7.95373009e-04, 0.00000000e+00, -4.68628644e-01, 0.00000000e+00, 0.00000000e+00, 9.25979436e+03, 1.81483252e+04, 0.00000000e+00, -4.03974858e+00, -9.15142145e-01, -2.45772509e+00, 1.71138991e+00, 0.00000000e+00, -3.6604759676, 5.2165642332, -5.5381102942, 2.1387564256, 6.0000000000, 21.4033350904, 0.7505688230
         580, -7.69634107e-04, 1.64369906e-03, 0.00000000e+00, 0.00000000e+00, 0.00000000e+00, -5.19614640e-04, 1.64369906e-03, -7.69634107e-04, 0.00000000e+00, -4.68232979e-01, 0.00000000e+00, 0.00000000e+00, 9.09498308e+03, 1.80703409e+04, 0.00000000e+00, -4.06513986e+00, -9.32473884e-01, -2.78078177e+00, 1.68673558e+00, 0.00000000e+00, -3.4945003383, 5.1737020664, -5.5101471399, 2.3516084190, 6.0000000000, 22.0735269110, 0.7720460335
         590, -7.48308519e-04, 1.59319506e-03, 0.00000000e+00, 0.00000000e+00, 0.00000000e+00, -5.01330685e-04, 1.59319506e-03, -7.48308519e-04, 0.00000000e+00, -4.69690460e-01, 0.00000000e+00, 0.00000000e+00, 8.93168182e+03, 1.79743512e+04, 0.00000000e+00, -4.07351638e+00, -9.46331640e-01, -2.43868612e+00, 1.67820597e+00, 0.00000000e+00, -3.3881684554, 5.1315262453, -5.4240299590, 2.1775043892, 6.0000000000, 22.0853170366, 0.7937856356
         600, -7.27251061e-04, 1.54488506e-03, 0.00000000e+00, 0.00000000e+00, 0.00000000e+00, -4.82805915e-04, 1.54488506e-03, -7.27251061e-04, 0.00000000e+00, -4.70747682e-01, 0.00000000e+00, 0.00000000e+00, 8.76122273e+03, 1.78662590e+04, 0.00000000e+00, -4.09382325e+00, -9.62608316e-01, -2.74686824e+00, 1.65822813e+00, 0.00000000e+00, -3.2225156416, 5.0897497163, -5.2571073457, 2.0818908520, 6.0000000000, 22.6764841446, 0.8096335093
         610, -7.08940634e-04, 1.49919736e-03, 0.00000000e+00, 0.00000000e+00, 0.00000000e+00, -4.66661108e-04, 1.49919736e-03, -7.08940634e-04, 0.00000000e+00, -4.72880125e-01, 0.00000000e+00, 0.00000000e+00, 8.60357300e+03, 1.77545640e+04, 0.00000000e+00, -4.10989744e+00, -9.77925983e-01, -2.55467089e+00, 1.64215755e+00, 0.00000000e+00, -3.0317794155, 5.0486497000, -5.0428852975, 2.0813879681, 6.0000000000, 22.8473711390, 0.8227022966
         620, -6.90415303e-04, 1.45522133e-03, 0.00000000e+00, 0.00000000e+00, 0.00000000e+00, -4.50176945e-04, 1.45522133e-03, -6.90415303e-04, 0.00000000e+00, -4.74440065e-01, 0.00000000e+00, 0.00000000e+00, 8.43816642e+03, 1.76435507e+04, 0.00000000e+00, -4.11901328e+00, -9.91373929e-01, -2.69928794e+00, 1.63284687e+00, 0.00000000e+00, -2.8187646916, 5.0076383590, -4.7993392082, 2.1094515900, 6.0000000000, 23.1655961548, 0.8358674924
         630, -6.74686243e-04, 1.41395341e-03, 0.00000000e+00, 0.00000000e+00, 0.00000000e+00, -4.35826307e-04, 1.41395341e-03, -6.74686243e-04, 0.00000000e+00, -4.77162994e-01, 0.00000000e+00, 0.00000000e+00, 8.28319494e+03, 1.75420725e+04, 0.00000000e+00, -4.13424466e+00, -1.00537158e+00, -2.66726010e+00, 1.61804459e+00, 0.00000000e+00, -2.5912723298, 4.9677218795, -4.5389296749, 2.1737164510, 6.0000000000, 23.3311709748, 0.8496091564
         640, -6.57953693e-04, 1.37413411e-03, 0.00000000e+00, 0.00000000e+00, 0.00000000e+00, -4.20567853e-04, 1.37413411e-03, -6.57953693e-04, 0.00000000e+00, -4.78813304e-01, 0.00000000e+00, 0.00000000e+00, 8.11675372e+03, 1.74514496e+04, 0.00000000e+00, -4.14771771e+00, -1.01972387e+00, -2.65871313e+00, 1.60440411e+00, 0.00000000e+00, -2.3468128896, 4.9278714072, -4.2540148835, 2.3194388283, 6.0000000000, 23.7450889395, 0.8636902372
         650, -6.44070939e-04, 1.33646225e-03, 0.00000000e+00, 0.00000000e+00, 0.00000000e+00, -4.07646227e-04, 1.33646225e-03, -6.44070939e-04, 0.00000000e+00, -4.81922283e-01, 0.00000000e+00, 0.00000000e+00, 7.96437773e+03, 1.73769307e+04, 0.00000000e+00, -4.16914387e+00, -1.03489069e+00, -2.74380550e+00, 1.58338686e+00, 0.00000000e+00, -2.0893054791, 4.8888221697, -3.9437589885, 2.5082505381, 7.0000000000, 24.0940221811, 0.8785755277
         660, -6.30030090e-04, 1.30007146e-03, 0.00000000e+00, 0.00000000e+00, 0.00000000e+00, -3.94505603e-04, 1.30007146e-03, -6.30030090e-04, 0.00000000e+00, -4.84611891e-01, 0.00000000e+00, 0.00000000e+00, 7.81162221e+03, 1.73189420e+04, 0.00000000e+00, -4.17508485e+00, -1.04703825e+00, -2.74550893e+00, 1.57708154e+00, 0.00000000e+00, -1.8150604739, 4.8497424423, -3.5962062241, 2.4666473506, 6.0000000000, 24.2371231951, 0.8933022141