TITLE = "SU2 Simulation"
VARIABLES = "Iteration","CL","CD","CSF","CMx","CMy","CMz","CFx","CFy","CFz","CL/CD","AoA","Custom_ObjFunc","HeatFlux_Total","HeatFlux_Maximum","Temperature_Total","Res_Flow[0]","Res_Flow[1]","Res_Flow[2]","Res_Flow[3]","Res_Flow[4]","Res_Turb[0]","Res_Turb[1]","Linear_Solver_Iterations","CFL_Number","Time(min)"
ZONE T= "Convergence history"
           0, -4.00000173e-01, 2.01249572e-01, 0.00000000e+00, 0.00000000e+00, 0.00000000e+00, -3.00000369e-01, 2.01249572e-01, -4.00000173e-01, 0.00000000e+00, -1.98758273e+00, 0.00000000e+00, 0.00000000e+00, -8.94492017e+04, 7.91361278e+04, 0.00000000e+00, -2.26369284e+00, 6.52141827e-02, 1.21914533e-01, 3.20528024e+00, 0.00000000e+00, 2.1823431226, 6.1387840048, 8.0000000000, 10.0000000000, 0.0007515828
          10, -2.96549419e-02, 8.38904925e-02, 0.00000000e+00, 0.00000000e+00, 0.00000000e+00, -4.86276176e-02, 8.38904925e-02, -2.96549419e-02, 0.00000000e+00, -3.53495862e-01, 0.00000000e+00, 0.00000000e+00, -6.83495920e+03, 6.04683973e+03, 0.00000000e+00, -3.11415686e+00, -4.68059281e-01, -7.37255358e-01, 2.36732760e+00, 0.00000000e+00, -0.3166118439, 5.3836972491, 10.0000000000, 25.1318520913, 0.0065487981
          20, -3.41295122e-01, 5.03347988e-02, 0.00000000e+00, 0.00000000e+00, 0.00000000e+00, -2.44343843e-01, 5.03347988e-02, -3.41295122e-01, 0.00000000e+00, -6.78050037e+00, 0.00000000e+00, 0.00000000e+00, -2.69061849e+03, 2.38377469e+03, 0.00000000e+00, -3.46734287e+00, -7.82396644e-01, -7.56433636e-01, 2.01555039e+00, 0.00000000e+00, -0.8916326286, 4.6420236763, 10.0000000000, 39.1090704935, 0.0116640846
          30, -1.58524795e-01, 3.72492560e-02, 0.00000000e+00, 0.00000000e+00, 0.00000000e+00, -7.92195016e-02, 3.72492560e-02, -1.58524795e-01, 0.00000000e+00, -4.25578420e+00, 0.00000000e+00, 0.00000000e+00, -1.47622196e+03, 1.31837501e+03, 0.00000000e+00, -3.55843897e+00, -8.87871846e-01, -1.21006124e+00, 1.92928056e+00, 0.00000000e+00, -1.1332356987, 4.4908693146, 10.0000000000, 40.7660636041, 0.0166084846
          40, -1.35406800e-01, 3.00790117e-02, 0.00000000e+00, 0.00000000e+00, 0.00000000e+00, -1.42321023e-01, 3.00790117e-02, -1.35406800e-01, 0.00000000e+00, -4.50170378e+00, 0.00000000e+00, 0.00000000e+00, -9.66794194e+02, 8.52979501e+02, 0.00000000e+00, -3.68372052e+00, -1.06667176e+00, -1.07202490e+00, 1.77037094e+00, 0.00000000e+00, -1.3071544688, 4.1877245132, 10.0000000000, 47.1167481764, 0.0216187318
          50, -2.21688419e-01, 2.50421811e-02, 0.00000000e+00, 0.00000000e+00, 0.00000000e+00, -1.46622644e-01, 2.50421811e-02, -2.21688419e-01, 0.00000000e+00, -8.85260028e+00, 0.00000000e+00, 0.00000000e+00, -6.77894522e+02, 6.02197054e+02, 0.00000000e+00, -3.89606372e+00, -1.23229134e+00, -1.24522845e+00, 1.58554839e+00, 0.00000000e+00, -1.4418300431, 4.1116262073, 10.0000000000, 60.9716362246, 0.0263774514
          60, -1.68265304e-01, 2.11669241e-02, 0.00000000e+00, 0.00000000e+00, 0.00000000e+00, -1.34462705e-01, 2.11669241e-02, -1.68265304e-01, 0.00000000e+00, -7.94944525e+00, 0.00000000e+00, 0.00000000e+00, -4.78997095e+02, 4.46440763e+02, 0.00000000e+00, -4.12694691e+00, -1.34179726e+00, -1.57021444e+00, 1.32766137e+00, 0.00000000e+00, -1.5847786099, 3.9240814500, 10.0000000000, 77.2867695600, 0.0311164180
          70, -1.93942726e-01, 1.82980783e-02, 0.00000000e+00, 0.00000000e+00, 0.00000000e+00, -1.41145029e-01, 1.82980783e-02, -1.93942726e-01, 0.00000000e+00, -1.05990762e+01, 0.00000000e+00, 0.00000000e+00, -3.57923858e+02, 3.25629173e+02, 0.00000000e+00, -4.30627493e+00, -1.45180884e+00, -1.70534165e+00, 1.17161241e+00, 0.00000000e+00, -1.7304409454, 3.6189539204, 10.0000000000, 85.8504281407, 0.0358034015
          80, -1.82509377e-01, 1.60904187e-02, 0.00000000e+00, 0.00000000e+00, 0.00000000e+00, -1.38995921e-01, 1.60904187e-02, -1.82509377e-01, 0.00000000e+00, -1.13427364e+01, 0.00000000e+00, 0.00000000e+00, -2.74768277e+02, 2.59200020e+02, 0.00000000e+00, -4.43385672e+00, -1.53903078e+00, -1.90146789e+00, 1.04404334e+00, 0.00000000e+00, -1.8703605245, 3.4401762884, 10.0000000000, 87.6327361709, 0.0403279821
          90, -1.88468638e-01, 1.42829957e-02, 0.00000000e+00, 0.00000000e+00, 0.00000000e+00, -1.40443655e-01, 1.42829957e-02, -1.88468638e-01, 0.00000000e+00, -1.31953158e+01, 0.00000000e+00, 0.00000000e+00, -2.15737095e+02, 2.33736329e+02, 0.00000000e+00, -4.67698576e+00, -1.60692903e+00, -2.20498460e+00, 8.04740824e-01, 0.00000000e+00, -2.0174506954, 3.2544887207, 10.0000000000, 91.4304306858, 0.0448055983
         100, -1.87066254e-01, 1.25942383e-02, 0.00000000e+00, 0.00000000e+00, 0.00000000e+00, -1.40372707e-01, 1.25942383e-02, -1.87066254e-01, 0.00000000e+00, -1.48533202e+01, 0.00000000e+00, 0.00000000e+00, -1.66728429e+02, 1.98353698e+02, 0.00000000e+00, -5.02790078e+00, -1.68448763e+00, -2.56818843e+00, 4.36874228e-01, 0.00000000e+00, -2.1656154059, 3.1791106329, 10.0000000000, 131.0281902121, 0.0493157506
         110, -1.86917065e-01, 1.10141421e-02, 0.00000000e+00, 0.00000000e+00, 0.00000000e+00, -1.40280690e-01, 1.10141421e-02, -1.86917065e-01, 0.00000000e+00, -1.69706422e+01, 0.00000000e+00, 0.00000000e+00, -1.26490191e+02, 1.80990441e+02, 0.00000000e+00, -5.24968980e+00, -1.76022641e+00, -2.75318067e+00, 2.08120696e-01, 0.00000000e+00, -2.2923141326, 3.0995160682, 10.0000000000, 167.5735188710, 0.0538943172
         120, -1.87180121e-01, 9.59513819e-03, 0.00000000e+00, 0.00000000e+00, 0.00000000e+00, -1.40426975e-01, 9.59513819e-03, -1.87180121e-01, 0.00000000e+00, -1.95078087e+01, 0.00000000e+00, 0.00000000e+00, -9.49894585e+01, 1.69769368e+02, 0.00000000e+00, -5.38107363e+00, -1.83672567e+00, -2.92569594e+00, 7.39751967e-02, 0.00000000e+00, -2.3509068094, 2.9899592137, 10.0000000000, 197.8558831233, 0.0585134665
         130, -1.87253636e-01, 8.42927804e-03, 0.00000000e+00, 0.00000000e+00, 0.00000000e+00, -1.40490650e-01, 8.42927804e-03, -1.87253636e-01, 0.00000000e+00, -2.22146707e+01, 0.00000000e+00, 0.00000000e+00, -7.26783384e+01, 1.62584684e+02, 0.00000000e+00, -5.48076501e+00, -1.90818415e+00, -3.04863056e+00, -2.08675575e-02, 0.00000000e+00, -2.3349940993, 2.8814900157, 10.0000000000, 223.4074896541, 0.0630820155
         140, -1.87290588e-01, 7.47921596e-03, 0.00000000e+00, 0.00000000e+00, 0.00000000e+00, -1.40531320e-01, 7.47921596e-03, -1.87290588e-01, 0.00000000e+00, -2.50414735e+01, 0.00000000e+00, 0.00000000e+00, -5.68554252e+01, 1.57964367e+02, 0.00000000e+00, -5.57333239e+00, -1.97467391e+00, -3.17389000e+00, -1.09326930e-01, 0.00000000e+00, -2.2722063118, 2.7766870895, 10.0000000000, 249.1519639623, 0.0676820318
         150, -1.87341010e-01, 6.70751426e-03, 0.00000000e+00, 0.00000000e+00, 0.00000000e+00, -1.40580412e-01, 6.70751426e-03, -1.87341010e-01, 0.00000000e+00, -2.79300204e+01, 0.00000000e+00, 0.00000000e+00, -4.55439180e+01, 1.54982442e+02, 0.00000000e+00, -5.65778406e+00, -2.03601198e+00, -3.30663056e+00, -1.90247029e-01, 0.00000000e+00, -2.1845659091, 2.6745791882, 10.0000000000, 275.0605433636, 0.0723332842
         160, -1.87340128e-01, 6.08966560e-03, 0.00000000e+00, 0.00000000e+00, 0.00000000e+00, -1.40595203e-01, 6.08966560e-03, -1.87340128e-01, 0.00000000e+00, -3.07636150e+01, 0.00000000e+00, 0.00000000e+00, -3.75074047e+01, 1.53021753e+02, 0.00000000e+00, -5.73003660e+00, -2.08923983e+00, -3.44227016e+00, -2.59484964e-01, 0.00000000e+00, -2.1348526344, 2.5749891961, 10.0000000000, 298.9830946576, 0.0769532164
         170, -1.87357411e-01, 5.62149502e-03, 0.00000000e+00, 0.00000000e+00, 0.00000000e+00, -1.40618698e-01, 5.62149502e-03, -1.87357411e-01, 0.00000000e+00, -3.33287516e+01, 0.00000000e+00, 0.00000000e+00, -3.19990961e+01, 1.51767406e+02, 0.00000000e+00, -5.79192453e+00, -2.13239742e+00, -3.57044895e+00, -3.18675006e-01, 0.00000000e+00, -2.1227148138, 2.4806590215, 10.0000000000, 299.7000000000, 0.0816371997
         180, -1.87347744e-01, 5.27975878e-03, 0.00000000e+00, 0.00000000e+00, 0.00000000e+00, -1.40624251e-01, 5.27975878e-03, -1.87347744e-01, 0.00000000e+00, -3.54841484e+01, 0.00000000e+00, 0.00000000e+00, -2.82647818e+01, 1.50963556e+02, 0.00000000e+00, -5.83900339e+00, -2.16643396e+00, -3.68470900e+00, -3.63750698e-01, 0.00000000e+00, -2.1200256048, 2.4022244708, 10.0000000000, 299.7000000000, 0.0862666488
         190, -1.87343503e-01, 5.02515210e-03, 0.00000000e+00, 0.00000000e+00, 0.00000000e+00, -1.40629447e-01, 5.02515210e-03, -1.87343503e-01, 0.00000000e+00, -3.72811607e+01, 0.00000000e+00, 0.00000000e+00, -2.56383992e+01, 1.50444216e+02, 0.00000000e+00, -5.87374008e+00, -2.19378715e+00, -3.79209128e+00, -3.97390071e-01, 0.00000000e+00, -2.1240291563, 2.3314025480, 10.0000000000, 299.7000000000, 0.0908881664
         200, -1.87330882e-01, 4.82978792e-03, 0.00000000e+00, 0.00000000e+00, 0.00000000e+00, -1.40629726e-01, 4.82978792e-03, -1.87330882e-01, 0.00000000e+00, -3.87865647e+01, 0.00000000e+00, 0.00000000e+00, -2.37509176e+01, 1.50117670e+02, 0.00000000e+00, -5.89842233e+00, -2.21635986e+00, -3.86234568e+00, -4.21374001e-01, 0.00000000e+00, -2.1365020700, 2.2625573621, 10.0000000000, 299.7000000000, 0.0955382983
         210, -1.87311276e-01, 4.67518102e-03, 0.00000000e+00, 0.00000000e+00, 0.00000000e+00, -1.40624120e-01, 4.67518102e-03, -1.87311276e-01, 0.00000000e+00, -4.00650319e+01, 0.00000000e+00, 0.00000000e+00, -2.23601676e+01, 1.49933431e+02, 0.00000000e+00, -5.91908314e+00, -2.23608314e+00, -3.95371209e+00, -4.41512800e-01, 0.00000000e+00, -2.1555404036, 2.1975713351, 10.0000000000, 299.7000000000, 0.1002114495
         220, -1.87291374e-01, 4.54818861e-03, 0.00000000e+00, 0.00000000e+00, 0.00000000e+00, -1.40617069e-01, 4.54818861e-03, -1.87291374e-01, 0.00000000e+00, -4.11793331e+01, 0.00000000e+00, 0.00000000e+00, -2.12952386e+01, 1.49855582e+02, 0.00000000e+00, -5.93325302e+00, -2.25412668e+00, -3.97432600e+00, -4.54446607e-01, 0.00000000e+00, -2.1788369488, 2.1374067420, 10.0000000000, 299.7000000000, 0.1048246662
         230, -1.87263896e-01, 4.43965211e-03, 0.00000000e+00, 0.00000000e+00, 0.00000000e+00, -1.40602736e-01, 4.43965211e-03, -1.87263896e-01, 0.00000000e+00, -4.21798581e+01, 0.00000000e+00, 0.00000000e+00, -2.04472573e+01, 1.49857874e+02, 0.00000000e+00, -5.94709508e+00, -2.27123180e+00, -4.02558891e+00, -4.65674399e-01, 0.00000000e+00, -2.2058104453, 2.0792361297, 10.0000000000, 299.7000000000, 0.1094790339
         240, -1.87237432e-01, 4.34310305e-03, 0.00000000e+00, 0.00000000e+00, 0.00000000e+00, -1.40585134e-01, 4.34310305e-03, -1.87237432e-01, 0.00000000e+00, -4.31114411e+01, 0.00000000e+00, 0.00000000e+00, -1.97493368e+01, 1.49922904e+02, 0.00000000e+00, -5.95584781e+00, -2.28792093e+00, -4.01307130e+00, -4.70642938e-01, 0.00000000e+00, -2.2351827406, 2.0247029201, 10.0000000000, 299.7000000000, 0.1141067346
         250, -1.87205659e-01, 4.25428086e-03, 0.00000000e+00, 0.00000000e+00, 0.00000000e+00, -1.40560092e-01, 4.25428086e-03, -1.87205659e-01, 0.00000000e+00, -4.40040668e+01, 0.00000000e+00, 0.00000000e+00, -1.91600180e+01, 1.50034887e+02, 0.00000000e+00, -5.95982856e+00, -2.30468712e+00, -4.01136316e+00, -4.72827266e-01, 0.00000000e+00, -2.2666534538, 1.9694710323, 10.0000000000, 299.7360847884, 0.1187285503
         260, -1.87172174e-01, 4.17069720e-03, 0.00000000e+00, 0.00000000e+00, 0.00000000e+00, -1.40530734e-01, 4.17069720e-03, -1.87172174e-01, 0.00000000e+00, -4.48779102e+01, 0.00000000e+00, 0.00000000e+00, -1.86537512e+01, 1.50182148e+02, 0.00000000e+00, -5.95371315e+00, -2.32245997e+00, -4.00116346e+00, -4.72013266e-01, 0.00000000e+00, -2.3029911567, 1.9129712204, 10.0000000000, 294.5718314200, 0.1234111667
         270, -1.87138587e-01, 4.09279727e-03, 0.00000000e+00, 0.00000000e+00, 0.00000000e+00, -1.40497880e-01, 4.09279727e-03, -1.87138587e-01, 0.00000000e+00, -4.57238839e+01, 0.00000000e+00, 0.00000000e+00, -1.82238191e+01, 1.50348439e+02, 0.00000000e+00, -5.94150033e+00, -2.34092487e+00, -3.97451541e+00, -4.71802770e-01, 0.00000000e+00, -2.3360928367, 1.8561229919, 10.0000000000, 282.7987063004, 0.1280654510
         280, -1.87109119e-01, 4.01995177e-03, 0.00000000e+00, 0.00000000e+00, 0.00000000e+00, -1.40462107e-01, 4.01995177e-03, -1.87109119e-01, 0.00000000e+00, -4.65451155e+01, 0.00000000e+00, 0.00000000e+00, -1.78536532e+01, 1.50524236e+02, 0.00000000e+00, -5.92909766e+00, -2.35973528e+00, -3.97582035e+00, -4.72390487e-01, 0.00000000e+00, -2.3683463936, 1.8046695908, 10.0000000000, 270.7874443485, 0.1326804320
         290, -1.87084080e-01, 3.95107134e-03, 0.00000000e+00, 0.00000000e+00, 0.00000000e+00, -1.40422972e-01, 3.95107134e-03, -1.87084080e-01, 0.00000000e+00, -4.73502156e+01, 0.00000000e+00, 0.00000000e+00, -1.75312435e+01, 1.50703296e+02, 0.00000000e+00, -5.91623791e+00, -2.37895318e+00, -3.92897312e+00, -4.68261556e-01, 0.00000000e+00, -2.3976438835, 1.7566487884, 10.0000000000, 258.9933460481, 0.1372927984
         300, -1.87063246e-01, 3.88525506e-03, 0.00000000e+00, 0.00000000e+00, 0.00000000e+00, -1.40379830e-01, 3.88525506e-03, -1.87063246e-01, 0.00000000e+00, -4.81469667e+01, 0.00000000e+00, 0.00000000e+00, -1.72506923e+01, 1.50881862e+02, 0.00000000e+00, -5.90681976e+00, -2.39870858e+00, -3.90163315e+00, -4.61315391e-01, 0.00000000e+00, -2.4277319051, 1.7178217826, 10.0000000000, 250.4191096218, 0.1419440826
         310, -1.87047430e-01, 3.82213312e-03, 0.00000000e+00, 0.00000000e+00, 0.00000000e+00, -1.40333699e-01, 3.82213312e-03, -1.87047430e-01, 0.00000000e+00, -4.89379686e+01, 0.00000000e+00, 0.00000000e+00, -1.70070997e+01, 1.51059243e+02, 0.00000000e+00, -5.89734283e+00, -2.41964261e+00, -3.85077261e+00, -4.49683209e-01, 0.00000000e+00, -2.4565802687, 1.6877603621, 10.0000000000, 242.4041264623, 0.1466160178
         320, -1.87036951e-01, 3.76198631e-03, 0.00000000e+00, 0.00000000e+00, 0.00000000e+00, -1.40285990e-01, 3.76198631e-03, -1.87036951e-01, 0.00000000e+00, -4.97176055e+01, 0.00000000e+00, 0.00000000e+00, -1.67968278e+01, 1.51232650e+02, 0.00000000e+00, -5.88835592e+00, -2.44236941e+00, -3.79869783e+00, -4.36384746e-01, 0.00000000e+00, -2.4877247477, 1.6704842947, 10.0000000000, 234.9199821146, 0.1512595812
         330, -1.87034825e-01, 3.70503809e-03, 0.00000000e+00, 0.00000000e+00, 0.00000000e+00, -1.40240414e-01, 3.70503809e-03, -1.87034825e-01, 0.00000000e+00, -5.04812152e+01, 0.00000000e+00, 0.00000000e+00, -1.66148022e+01, 1.51401117e+02, 0.00000000e+00, -5.87927975e+00, -2.46731140e+00, -3.75089804e+00, -4.22536677e-01, 0.00000000e+00, -2.5190033293, 1.6647863992, 10.0000000000, 227.7105064183, 0.1558887323
         340, -1.87044050e-01, 3.65155488e-03, 0.00000000e+00, 0.00000000e+00, 0.00000000e+00, -1.40203024e-01, 3.65155488e-03, -1.87044050e-01, 0.00000000e+00, -5.12231245e+01, 0.00000000e+00, 0.00000000e+00, -1.64553530e+01, 1.51563119e+02, 0.00000000e+00, -5.86956833e+00, -2.49472235e+00, -3.70014377e+00, -4.08563303e-01, 0.00000000e+00, -2.5509429002, 1.6678342151, 10.0000000000, 220.2627546430, 0.1606568654
         350, -1.87067837e-01, 3.60136732e-03, 0.00000000e+00, 0.00000000e+00, 0.00000000e+00, -1.40181037e-01, 3.60136732e-03, -1.87067837e-01, 0.00000000e+00, -5.19435593e+01, 0.00000000e+00, 0.00000000e+00, -1.63137043e+01, 1.51718699e+02, 0.00000000e+00, -5.86325538e+00, -2.52463108e+00, -3.66243416e+00, -3.99097159e-01, 0.00000000e+00, -2.5840883865, 1.6797977776, 10.0000000000, 215.0297829026, 0.1652811329
         360, -1.87106979e-01, 3.55365010e-03, 0.00000000e+00, 0.00000000e+00, 0.00000000e+00, -1.40178772e-01, 3.55365010e-03, -1.87106979e-01, 0.00000000e+00, -5.26520545e+01, 0.00000000e+00, 0.00000000e+00, -1.61845478e+01, 1.51870452e+02, 0.00000000e+00, -5.86546695e+00, -2.55670330e+00, -3.63631290e+00, -3.99373533e-01, 0.00000000e+00, -2.6182071558, 1.7038809733, 10.0000000000, 214.7648097619, 0.1699478666
         370, -1.87157389e-01, 3.50748854e-03, 0.00000000e+00, 0.00000000e+00, 0.00000000e+00, -1.40193775e-01, 3.50748854e-03, -1.87157389e-01, 0.00000000e+00, -5.33593731e+01, 0.00000000e+00, 0.00000000e+00, -1.60628540e+01, 1.52021477e+02, 0.00000000e+00, -5.88394440e+00, -2.58982550e+00, -3.63116366e+00, -4.16572361e-01, 0.00000000e+00, -2.6519150866, 1.7394144241, 10.0000000000, 218.9365046382, 0.1746017496
         380, -1.87211357e-01, 3.46220711e-03, 0.00000000e+00, 0.00000000e+00, 0.00000000e+00, -1.40216576e-01, 3.46220711e-03, -1.87211357e-01, 0.00000000e+00, -5.40728359e+01, 0.00000000e+00, 0.00000000e+00, -1.59450132e+01, 1.52174258e+02, 0.00000000e+00, -5.91570065e+00, -2.62262630e+00, -3.64699291e+00, -4.46879465e-01, 0.00000000e+00, -2.6837833297, 1.7851816163, 10.0000000000, 226.8641924005, 0.1792339166
         390, -1.87262799e-01, 3.41759880e-03, 0.00000000e+00, 0.00000000e+00, 0.00000000e+00, -1.40238584e-01, 3.41759880e-03, -1.87262799e-01, 0.00000000e+00, -5.47936753e+01, 0.00000000e+00, 0.00000000e+00, -1.58290815e+01, 1.52329629e+02, 0.00000000e+00, -5.95058136e+00, -2.65454916e+00, -3.67231190e+00, -4.80271598e-01, 0.00000000e+00, -2.7135480637, 1.8349633445, 10.0000000000, 236.1876221575, 0.1838865678
         400, -1.87310386e-01, 3.37393105e-03, 0.00000000e+00, 0.00000000e+00, 0.00000000e+00, -1.40257398e-01, 3.37393105e-03, -1.87310386e-01, 0.00000000e+00, -5.55169572e+01, 0.00000000e+00, 0.00000000e+00, -1.57151145e+01, 1.52486704e+02, 0.00000000e+00, -5.98221717e+00, -2.68584636e+00, -3.69937301e+00, -5.10979901e-01, 0.00000000e+00, -2.7411741887, 1.8827961992, 10.0000000000, 245.0597019352, 0.1885497491
         410, -1.87354856e-01, 3.33161388e-03, 0.00000000e+00, 0.00000000e+00, 0.00000000e+00, -1.40273764e-01, 3.33161388e-03, -1.87354856e-01, 0.00000000e+00, -5.62354651e+01, 0.00000000e+00, 0.00000000e+00, -1.56043075e+01, 1.52644039e+02, 0.00000000e+00, -6.01010260e+00, -2.71695050e+00, -3.72359579e+00, -5.38410453e-01, 0.00000000e+00, -2.7671737271, 1.9269733334, 10.0000000000, 253.1562634036, 0.1932112813
         420, -1.87397044e-01, 3.29099698e-03, 0.00000000e+00, 0.00000000e+00, 0.00000000e+00, -1.40288631e-01, 3.29099698e-03, -1.87397044e-01, 0.00000000e+00, -5.69423323e+01, 0.00000000e+00, 0.00000000e+00, -1.54980231e+01, 1.52800425e+02, 0.00000000e+00, -6.03521338e+00, -2.74816502e+00, -3.74575970e+00, -5.63432627e-01, 0.00000000e+00, -2.7917763614, 1.9674729871, 10.0000000000, 260.6481613288, 0.1978090843
         430, -1.87437542e-01, 3.25233711e-03, 0.00000000e+00, 0.00000000e+00, 0.00000000e+00, -1.40302696e-01, 3.25233711e-03, -1.87437542e-01, 0.00000000e+00, -5.76316462e+01, 0.00000000e+00, 0.00000000e+00, -1.53973699e+01, 1.52954999e+02, 0.00000000e+00, -6.05842675e+00, -2.77967131e+00, -3.76605132e+00, -5.86798941e-01, 0.00000000e+00, -2.8156786283, 2.0047206529, 10.0000000000, 267.7551427271, 0.2023620844
         440, -1.87476681e-01, 3.21581216e-03, 0.00000000e+00, 0.00000000e+00, 0.00000000e+00, -1.40316335e-01, 3.21581216e-03, -1.87476681e-01, 0.00000000e+00, -5.82983930e+01, 0.00000000e+00, 0.00000000e+00, -1.53029758e+01, 1.53107139e+02, 0.00000000e+00, -6.08034733e+00, -2.81160953e+00, -3.78511233e+00, -6.09053635e-01, 0.00000000e+00, -2.8390727679, 2.0391220357, 10.0000000000, 274.6313277113, 0.2069620848
         450, -1.87514683e-01, 3.18152483e-03, 0.00000000e+00, 0.00000000e+00, 0.00000000e+00, -1.40329782e-01, 3.18152483e-03, -1.87514683e-01, 0.00000000e+00, -5.89386200e+01, 0.00000000e+00, 0.00000000e+00, -1.52149405e+01, 1.53256466e+02, 0.00000000e+00, -6.10149182e+00, -2.84406000e+00, -3.80373867e+00, -6.30663929e-01, 0.00000000e+00, -2.8625217132, 2.0710205670, 10.0000000000, 281.4219823402, 0.2115138014
         460, -1.87551663e-01, 3.14951911e-03, 0.00000000e+00, 0.00000000e+00, 0.00000000e+00, -1.40343178e-01, 3.14951911e-03, -1.87551663e-01, 0.00000000e+00, -5.95493014e+01, 0.00000000e+00, 0.00000000e+00, -1.51328576e+01, 1.53402736e+02, 0.00000000e+00, -6.12194785e+00, -2.87709855e+00, -3.82171306e+00, -6.51680956e-01, 0.00000000e+00, -2.8864152045, 2.1005511534, 10.0000000000, 288.1486147339, 0.2161317984
         470, -1.87587739e-01, 3.11978580e-03, 0.00000000e+00, 0.00000000e+00, 0.00000000e+00, -1.40356648e-01, 3.11978580e-03, -1.87587739e-01, 0.00000000e+00, -6.01284034e+01, 0.00000000e+00, 0.00000000e+00, -1.50559403e+01, 1.53545863e+02, 0.00000000e+00, -6.14221960e+00, -2.91079480e+00, -3.83978438e+00, -6.72601572e-01, 0.00000000e+00, -2.9109865446, 2.1280530554, 10.0000000000, 294.9578238609, 0.2207112670
         480, -1.87622926e-01, 3.09230780e-03, 0.00000000e+00, 0.00000000e+00, 0.00000000e+00, -1.40370377e-01, 3.09230780e-03, -1.87622926e-01, 0.00000000e+00, -6.06740785e+01, 0.00000000e+00, 0.00000000e+00, -1.49831744e+01, 1.53685570e+02, 0.00000000e+00, -6.16354852e+00, -2.94520885e+00, -3.85863352e+00, -6.94637847e-01, 0.00000000e+00, -2.9367607931, 2.1498234588, 10.0000000000, 299.7000000000, 0.2252885501
         490, -1.87657340e-01, 3.06738984e-03, 0.00000000e+00, 0.00000000e+00, 0.00000000e+00, -1.40385141e-01, 3.06738984e-03, -1.87657340e-01, 0.00000000e+00, -6.11781840e+01, 0.00000000e+00, 0.00000000e+00, -1.49145247e+01, 1.53819143e+02, 0.00000000e+00, -6.19105823e+00, -2.98008522e+00, -3.88274101e+00, -7.22727428e-01, 0.00000000e+00, -2.9639816840, 2.1632904511, 10.0000000000, 299.7000000000, 0.2299024979
         500, -1.87690393e-01, 3.04490686e-03, 0.00000000e+00, 0.00000000e+00, 0.00000000e+00, -1.40399916e-01, 3.04490686e-03, -1.87690393e-01, 0.00000000e+00, -6.16407667e+01, 0.00000000e+00, 0.00000000e+00, -1.48492794e+01, 1.53947065e+02, 0.00000000e+00, -6.22017776e+00, -3.01516086e+00, -3.90972972e+00, -7.52393538e-01, 0.00000000e+00, -2.9919013623, 2.1750869145, 10.0000000000, 299.7000000000, 0.2345259349
         510, -1.87722009e-01, 3.02461030e-03, 0.00000000e+00, 0.00000000e+00, 0.00000000e+00, -1.40414469e-01, 3.02461030e-03, -1.87722009e-01, 0.00000000e+00, -6.20648581e+01, 0.00000000e+00, 0.00000000e+00, -1.47861709e+01, 1.54069852e+02, 0.00000000e+00, -6.24854552e+00, -3.05043859e+00, -3.93577181e+00, -7.81428449e-01, 0.00000000e+00, -3.0206443263, 2.1851588127, 10.0000000000, 299.7000000000, 0.2391361316
         520, -1.87752275e-01, 3.00626488e-03, 0.00000000e+00, 0.00000000e+00, 0.00000000e+00, -1.40428943e-01, 3.00626488e-03, -1.87752275e-01, 0.00000000e+00, -6.24536702e+01, 0.00000000e+00, 0.00000000e+00, -1.47242179e+01, 1.54187979e+02, 0.00000000e+00, -6.27824707e+00, -3.08597450e+00, -3.96331533e+00, -8.11868861e-01, 0.00000000e+00, -3.0503757582, 2.1936763953, 10.0000000000, 299.7000000000, 0.2437295000
         530, -1.87781017e-01, 2.98966520e-03, 0.00000000e+00, 0.00000000e+00, 0.00000000e+00, -1.40442974e-01, 2.98966520e-03, -1.87781017e-01, 0.00000000e+00, -6.28100489e+01, 0.00000000e+00, 0.00000000e+00, -1.46627472e+01, 1.54301883e+02, 0.00000000e+00, -6.30800263e+00, -3.12175699e+00, -3.99129717e+00, -8.42438306e-01, 0.00000000e+00, -3.0809582421, 2.2008190385, 10.0000000000, 299.7000000000, 0.2483879487
         540, -1.87808368e-01, 2.97463141e-03, 0.00000000e+00, 0.00000000e+00, 0.00000000e+00, -1.40456654e-01, 2.97463141e-03, -1.87808368e-01, 0.00000000e+00, -6.31366854e+01, 0.00000000e+00, 0.00000000e+00, -1.46012753e+01, 1.54411961e+02, 0.00000000e+00, -6.33723261e+00, -3.15783337e+00, -4.01896184e+00, -8.72647391e-01, 0.00000000e+00, -3.1121786387, 2.2066341140, 10.0000000000, 299.7000000000, 0.2529729168
         550, -1.87834464e-01, 2.96100441e-03, 0.00000000e+00, 0.00000000e+00, 0.00000000e+00, -1.40470170e-01, 2.96100441e-03, -1.87834464e-01, 0.00000000e+00, -6.34360635e+01, 0.00000000e+00, 0.00000000e+00, -1.45394962e+01, 1.54518574e+02, 0.00000000e+00, -6.36739497e+00, -3.19425424e+00, -4.04742644e+00, -9.03925096e-01, 0.00000000e+00, -3.1441556779, 2.2112687418, 10.0000000000, 299.7000000000, 0.2575976491
         560, -1.87859224e-01, 2.94864346e-03, 0.00000000e+00, 0.00000000e+00, 0.00000000e+00, -1.40483333e-01, 2.94864346e-03, -1.87859224e-01, 0.00000000e+00, -6.37103899e+01, 0.00000000e+00, 0.00000000e+00, -1.44772348e+01, 1.54622048e+02, 0.00000000e+00, -6.39791552e+00, -3.23097837e+00, -4.07678766e+00, -9.35699022e-01, 0.00000000e+00, -3.1771350802, 2.2148656580, 10.0000000000, 299.7000000000, 0.2621963978
         570, -1.87882722e-01, 2.93742418e-03, 0.00000000e+00, 0.00000000e+00, 0.00000000e+00, -1.40496195e-01, 2.93742418e-03, -1.87882722e-01, 0.00000000e+00, -6.39617265e+01, 0.00000000e+00, 0.00000000e+00, -1.44144017e+01, 1.54722670e+02, 0.00000000e+00, -6.42891055e+00, -3.26801924e+00, -4.10690139e+00, -9.68151876e-01, 0.00000000e+00, -3.2108863862, 2.2174893516, 10.0000000000, 299.7000000000, 0.2667897145
         580, -1.87904952e-01, 2.92723627e-03, 0.00000000e+00, 0.00000000e+00, 0.00000000e+00, -1.40508697e-01, 2.92723627e-03, -1.87904952e-01, 0.00000000e+00, -6.41919319e+01, 0.00000000e+00, 0.00000000e+00, -1.43509897e+01, 1.54820695e+02, 0.00000000e+00, -6.46064909e+00, -3.30537578e+00, -4.13786879e+00, -1.00157108e+00, 0.00000000e+00, -3.2452368768, 2.2192547079, 10.0000000000, 299.7000000000, 0.2714026491
         590, -1.87925897e-01, 2.91798200e-03, 0.00000000e+00, 0.00000000e+00, 0.00000000e+00, -1.40520726e-01, 2.91798200e-03, -1.87925897e-01, 0.00000000e+00, -6.44026924e+01, 0.00000000e+00, 0.00000000e+00, -1.42870390e+01, 1.54916354e+02, 0.00000000e+00, -6.49248492e+00, -3.34301789e+00, -4.16939681e+00, -1.03533084e+00, 0.00000000e+00, -3.2801130055, 2.2202358347, 10.0000000000, 299.7000000000, 0.2760209839
         600, -1.87945632e-01, 2.90957434e-03, 0.00000000e+00, 0.00000000e+00, 0.00000000e+00, -1.40532331e-01, 2.90957434e-03, -1.87945632e-01, 0.00000000e+00, -6.45955764e+01, 0.00000000e+00, 0.00000000e+00, -1.42226208e+01, 1.55009825e+02, 0.00000000e+00, -6.52474220e+00, -3.38093858e+00, -4.20160018e+00, -1.06983190e+00, 0.00000000e+00, -3.3155640968, 2.2204872383, 10.0000000000, 299.7000000000, 0.2806565166
         610, -1.87964149e-01, 2.90193535e-03, 0.00000000e+00, 0.00000000e+00, 0.00000000e+00, -1.40543425e-01, 2.90193535e-03, -1.87964149e-01, 0.00000000e+00, -6.47719973e+01, 0.00000000e+00, 0.00000000e+00, -1.41578257e+01, 1.55101259e+02, 0.00000000e+00, -6.55696549e+00, -3.41910391e+00, -4.23460888e+00, -1.10463748e+00, 0.00000000e+00, -3.3514305196, 2.2200975934, 10.0000000000, 299.7000000000, 0.2852547844
         620, -1.87981544e-01, 2.89499484e-03, 0.00000000e+00, 0.00000000e+00, 0.00000000e+00, -1.40554066e-01, 2.89499484e-03, -1.87981544e-01, 0.00000000e+00, -6.49332914e+01, 0.00000000e+00, 0.00000000e+00, -1.40927482e+01, 1.55190785e+02, 0.00000000e+00, -6.58887602e+00, -3.45755579e+00, -4.26748545e+00, -1.13953563e+00, 0.00000000e+00, -3.3874743701, 2.2190959247, 10.0000000000, 299.7000000000, 0.2898267666
         630, -1.87997868e-01, 2.88868934e-03, 0.00000000e+00, 0.00000000e+00, 0.00000000e+00, -1.40564278e-01, 2.88868934e-03, -1.87997868e-01, 0.00000000e+00, -6.50806807e+01, 0.00000000e+00, 0.00000000e+00, -1.40274918e+01, 1.55278519e+02, 0.00000000e+00, -6.62128486e+00, -3.49630015e+00, -4.30126221e+00, -1.17540926e+00, 0.00000000e+00, -3.4238501734, 2.2175583603, 10.0000000000, 299.7000000000, 0.2944112659
         640, -1.88013125e-01, 2.88296145e-03, 0.00000000e+00, 0.00000000e+00, 0.00000000e+00, -1.40573993e-01, 2.88296145e-03, -1.88013125e-01, 0.00000000e+00, -6.52152752e+01, 0.00000000e+00, 0.00000000e+00, -1.39621610e+01, 1.55364544e+02, 0.00000000e+00, -6.65375433e+00, -3.53528737e+00, -4.33584479e+00, -1.21188093e+00, 0.00000000e+00, -3.4605996960, 2.2155356963, 10.0000000000, 299.7000000000, 0.2989993016
         650, -1.88027354e-01, 2.87775920e-03, 0.00000000e+00, 0.00000000e+00, 0.00000000e+00, -1.40583203e-01, 2.87775920e-03, -1.88027354e-01, 0.00000000e+00, -6.53381125e+01, 0.00000000e+00, 0.00000000e+00, -1.38968586e+01, 1.55448900e+02, 0.00000000e+00, -6.68601001e+00, -3.57449375e+00, -4.37088934e+00, -1.24874656e+00, 0.00000000e+00, -3.4977119661, 2.2130643304, 10.0000000000, 299.7000000000, 0.3035911997
         660, -1.88040611e-01, 2.87303539e-03, 0.00000000e+00, 0.00000000e+00, 0.00000000e+00, -1.40591920e-01, 2.87303539e-03, -1.88040611e-01, 0.00000000e+00, -6.54501548e+01, 0.00000000e+00, 0.00000000e+00, -1.38316787e+01, 1.55531651e+02, 0.00000000e+00, -6.71796803e+00, -3.61391145e+00, -4.40643830e+00, -1.28600108e+00, 0.00000000e+00, -3.5351770687, 2.2101792561, 10.0000000000, 299.7000000000, 0.3081894994
         670, -1.88052941e-01, 2.86874714e-03, 0.00000000e+00, 0.00000000e+00, 0.00000000e+00, -1.40600150e-01, 2.86874714e-03, -1.88052941e-01, 0.00000000e+00, -6.55522889e+01, 0.00000000e+00, 0.00000000e+00, -1.37667123e+01, 1.55612871e+02, 0.00000000e+00, -6.74950544e+00, -3.65350468e+00, -4.44255074e+00, -1.32360110e+00, 0.00000000e+00, -3.5730968300, 2.2069174214, 10.0000000000, 299.7000000000, 0.3127915978
         680, -1.88064392e-01, 2.86485534e-03, 0.00000000e+00, 0.00000000e+00, 0.00000000e+00, -1.40607904e-01, 2.86485534e-03, -1.88064392e-01, 0.00000000e+00, -6.56453362e+01, 0.00000000e+00, 0.00000000e+00, -1.37020421e+01, 1.55692605e+02, 0.00000000e+00, -6.78069427e+00, -3.69327940e+00, -4.47914739e+00, -1.36174247e+00, 0.00000000e+00, -3.6112984203, 2.2033150374, 10.0000000000, 299.7000000000, 0.3174169978
         690, -1.88074996e-01, 2.86132432e-03, 0.00000000e+00, 0.00000000e+00, 0.00000000e+00, -1.40615162e-01, 2.86132432e-03, -1.88074996e-01, 0.00000000e+00, -6.57300518e+01, 0.00000000e+00, 0.00000000e+00, -1.36377435e+01, 1.55770861e+02, 0.00000000e+00, -6.81107329e+00, -3.73321187e+00, -4.51599255e+00, -1.39995887e+00, 0.00000000e+00, -3.6497320645, 2.1994021960, 10.0000000000, 299.7000000000, 0.3220256329
         700, -1.88084821e-01, 2.85812145e-03, 0.00000000e+00, 0.00000000e+00, 0.00000000e+00, -1.40621967e-01, 2.85812145e-03, -1.88084821e-01, 0.00000000e+00, -6.58071480e+01, 0.00000000e+00, 0.00000000e+00, -1.35738794e+01, 1.55847639e+02, 0.00000000e+00, -6.84048968e+00, -3.77331549e+00, -4.55282041e+00, -1.43817980e+00, 0.00000000e+00, -3.6882675026, 2.1951945634, 10.0000000000, 299.7000000000, 0.3266172489