TITLE = "SU2 Simulation"
VARIABLES = "Iteration","CL","CD","CSF","CMx","CMy","CMz","CFx","CFy","CFz","CL/CD","AoA","Custom_ObjFunc","HeatFlux_Total","HeatFlux_Maximum","Temperature_Total","Res_Flow[0]","Res_Flow[1]","Res_Flow[2]","Res_Flow[3]","Res_Flow[4]","Res_Turb[0]","Res_Turb[1]","Linear_Solver_Iterations","CFL_Number","Time(min)"
ZONE T= "Convergence history"
           0, -4.00000173e-01, 2.01249572e-01, 0.00000000e+00, 0.00000000e+00, 0.00000000e+00, -3.00000369e-01, 2.01249572e-01, -4.00000173e-01, 0.00000000e+00, -1.98758273e+00, 0.00000000e+00, 0.00000000e+00, -8.74672925e+04, 7.87986278e+04, 0.00000000e+00, -2.26369284e+00, 6.52141827e-02, 1.21914533e-01, 3.20528024e+00, 0.00000000e+00, 2.1823431229, 6.1387840048, 8.0000000000, 10.0000000000, 0.0014626106
          10, -2.96982179e-02, 8.38846032e-02, 0.00000000e+00, 0.00000000e+00, 0.00000000e+00, -4.86655719e-02, 8.38846032e-02, -2.96982179e-02, 0.00000000e+00, -3.54036578e-01, 0.00000000e+00, 0.00000000e+00, -6.67114165e+03, 6.01119366e+03, 0.00000000e+00, -3.11669094e+00, -4.68147595e-01, -7.41430415e-01, 2.36470706e+00, 0.00000000e+00, -0.3166602165, 5.3837034495, 10.0000000000, 25.1521789652, 0.0141624928
          20, -3.41340434e-01, 5.01080108e-02, 0.00000000e+00, 0.00000000e+00, 0.00000000e+00, -2.42855111e-01, 5.01080108e-02, -3.41340434e-01, 0.00000000e+00, -6.81209309e+00, 0.00000000e+00, 0.00000000e+00, -2.60364247e+03, 2.34897183e+03, 0.00000000e+00, -3.47055404e+00, -7.83882651e-01, -7.54333071e-01, 2.01200471e+00, 0.00000000e+00, -0.8953137913, 4.6379867914, 10.0000000000, 39.3994407200, 0.0271611810
          30, -1.54916780e-01, 3.70924795e-02, 0.00000000e+00, 0.00000000e+00, 0.00000000e+00, -7.85686833e-02, 3.70924795e-02, -1.54916780e-01, 0.00000000e+00, -4.17650107e+00, 0.00000000e+00, 0.00000000e+00, -1.42995652e+03, 1.29976655e+03, 0.00000000e+00, -3.56439337e+00, -8.97878115e-01, -1.21927206e+00, 1.92434500e+00, 0.00000000e+00, -1.1364223524, 4.4907875841, 10.0000000000, 41.2446308197, 0.0404854457
          40, -1.38442167e-01, 2.99614694e-02, 0.00000000e+00, 0.00000000e+00, 0.00000000e+00, -1.43731936e-01, 2.99614694e-02, -1.38442167e-01, 0.00000000e+00, -4.62067348e+00, 0.00000000e+00, 0.00000000e+00, -9.37502667e+02, 8.42417845e+02, 0.00000000e+00, -3.69207225e+00, -1.07221786e+00, -1.08957578e+00, 1.75869528e+00, 0.00000000e+00, -1.3103437324, 4.1820898297, 10.0000000000, 47.5362775619, 0.0552976727
          50, -2.20308223e-01, 2.49045489e-02, 0.00000000e+00, 0.00000000e+00, 0.00000000e+00, -1.45210127e-01, 2.49045489e-02, -2.20308223e-01, 0.00000000e+00, -8.84610373e+00, 0.00000000e+00, 0.00000000e+00, -6.54861830e+02, 5.95337095e+02, 0.00000000e+00, -3.90405982e+00, -1.23042621e+00, -1.25478529e+00, 1.58056682e+00, 0.00000000e+00, -1.4459327864, 4.0960134850, 10.0000000000, 61.5198406601, 0.0707180699
          60, -1.68743015e-01, 2.09104023e-02, 0.00000000e+00, 0.00000000e+00, 0.00000000e+00, -1.36464787e-01, 2.09104023e-02, -1.68743015e-01, 0.00000000e+00, -8.06981195e+00, 0.00000000e+00, 0.00000000e+00, -4.56312051e+02, 4.18058829e+02, 0.00000000e+00, -4.15536138e+00, -1.35345042e+00, -1.61756544e+00, 1.29774350e+00, 0.00000000e+00, -1.5963203763, 3.9112541498, 10.0000000000, 81.8060043165, 0.0842300971
          70, -1.93305830e-01, 1.77685597e-02, 0.00000000e+00, 0.00000000e+00, 0.00000000e+00, -1.40223102e-01, 1.77685597e-02, -1.93305830e-01, 0.00000000e+00, -1.08790939e+01, 0.00000000e+00, 0.00000000e+00, -3.28863508e+02, 3.12116745e+02, 0.00000000e+00, -4.30909776e+00, -1.44664159e+00, -1.74470412e+00, 1.18074316e+00, 0.00000000e+00, -1.7610195921, 3.6285025133, 10.0000000000, 94.3778538028, 0.0986941934
          80, -1.85740715e-01, 1.53592288e-02, 0.00000000e+00, 0.00000000e+00, 0.00000000e+00, -1.40158336e-01, 1.53592288e-02, -1.85740715e-01, 0.00000000e+00, -1.20931016e+01, 0.00000000e+00, 0.00000000e+00, -2.43132019e+02, 2.46106227e+02, 0.00000000e+00, -4.63005309e+00, -1.56083211e+00, -2.10239437e+00, 8.54164696e-01, 0.00000000e+00, -1.9270811281, 3.3361202210, 10.0000000000, 102.7133576736, 0.1116144379
          90, -1.86029907e-01, 1.32291686e-02, 0.00000000e+00, 0.00000000e+00, 0.00000000e+00, -1.39876843e-01, 1.32291686e-02, -1.86029907e-01, 0.00000000e+00, -1.40621011e+01, 0.00000000e+00, 0.00000000e+00, -1.79341683e+02, 2.07864987e+02, 0.00000000e+00, -4.93603183e+00, -1.65649975e+00, -2.33667744e+00, 5.34867763e-01, 0.00000000e+00, -2.1057470956, 3.3021876838, 10.0000000000, 142.5905417930, 0.1245391051
         100, -1.86848896e-01, 1.13780726e-02, 0.00000000e+00, 0.00000000e+00, 0.00000000e+00, -1.40204403e-01, 1.13780726e-02, -1.86848896e-01, 0.00000000e+00, -1.64218407e+01, 0.00000000e+00, 0.00000000e+00, -1.31376897e+02, 1.85441245e+02, 0.00000000e+00, -5.18419019e+00, -1.74140977e+00, -2.68266814e+00, 2.70929611e-01, 0.00000000e+00, -2.2637483638, 3.1533149514, 10.0000000000, 177.8318877844, 0.1377556682
         110, -1.87123824e-01, 9.77504742e-03, 0.00000000e+00, 0.00000000e+00, 0.00000000e+00, -1.40384220e-01, 9.77504742e-03, -1.87123824e-01, 0.00000000e+00, -1.91430094e+01, 0.00000000e+00, 0.00000000e+00, -9.59259448e+01, 1.71605167e+02, 0.00000000e+00, -5.32619337e+00, -1.82605241e+00, -2.83536021e+00, 1.33597456e-01, 0.00000000e+00, -2.3441086815, 3.0249845244, 10.0000000000, 211.8273015462, 0.1507385254
         120, -1.87274629e-01, 8.47329764e-03, 0.00000000e+00, 0.00000000e+00, 0.00000000e+00, -1.40498517e-01, 8.47329764e-03, -1.87274629e-01, 0.00000000e+00, -2.21017409e+01, 0.00000000e+00, 0.00000000e+00, -7.14755051e+01, 1.63202032e+02, 0.00000000e+00, -5.45569253e+00, -1.90489178e+00, -2.99264078e+00, 7.58837474e-03, 0.00000000e+00, -2.3311691334, 2.9102180654, 10.0000000000, 247.0025048751, 0.1652052522
         130, -1.87282266e-01, 7.43203395e-03, 0.00000000e+00, 0.00000000e+00, 0.00000000e+00, -1.40527877e-01, 7.43203395e-03, -1.87282266e-01, 0.00000000e+00, -2.51993287e+01, 0.00000000e+00, 0.00000000e+00, -5.46670735e+01, 1.58011371e+02, 0.00000000e+00, -5.55910830e+00, -1.97787055e+00, -3.13528270e+00, -9.27172906e-02, 0.00000000e+00, -2.2641250461, 2.7943073001, 10.0000000000, 277.5581901778, 0.1782592535
         140, -1.87342859e-01, 6.60394946e-03, 0.00000000e+00, 0.00000000e+00, 0.00000000e+00, -1.40581914e-01, 6.60394946e-03, -1.87342859e-01, 0.00000000e+00, -2.83683060e+01, 0.00000000e+00, 0.00000000e+00, -4.30469805e+01, 1.54734346e+02, 0.00000000e+00, -5.64623978e+00, -2.04463559e+00, -3.26508393e+00, -1.76993153e-01, 0.00000000e+00, -2.1733044103, 2.6758654015, 10.0000000000, 299.7000000000, 0.1914274096
         150, -1.87347486e-01, 5.99266000e-03, 0.00000000e+00, 0.00000000e+00, 0.00000000e+00, -1.40602626e-01, 5.99266000e-03, -1.87347486e-01, 0.00000000e+00, -3.12628258e+01, 0.00000000e+00, 0.00000000e+00, -3.55179087e+01, 1.52766883e+02, 0.00000000e+00, -5.72373512e+00, -2.09826958e+00, -3.38464963e+00, -2.52279141e-01, 0.00000000e+00, -2.1320199540, 2.5544978188, 10.0000000000, 299.7000000000, 0.2047213912
         160, -1.87349714e-01, 5.55050851e-03, 0.00000000e+00, 0.00000000e+00, 0.00000000e+00, -1.40616582e-01, 5.55050851e-03, -1.87349714e-01, 0.00000000e+00, -3.37536127e+01, 0.00000000e+00, 0.00000000e+00, -3.06405232e+01, 1.51541993e+02, 0.00000000e+00, -5.78875872e+00, -2.13952381e+00, -3.51236072e+00, -3.15195237e-01, 0.00000000e+00, -2.1221785280, 2.4606946135, 10.0000000000, 299.7000000000, 0.2179203709
         170, -1.87350651e-01, 5.22745645e-03, 0.00000000e+00, 0.00000000e+00, 0.00000000e+00, -1.40629536e-01, 5.22745645e-03, -1.87350651e-01, 0.00000000e+00, -3.58397345e+01, 0.00000000e+00, 0.00000000e+00, -2.73006988e+01, 1.50754070e+02, 0.00000000e+00, -5.83831158e+00, -2.17216555e+00, -3.62587215e+00, -3.63169682e-01, 0.00000000e+00, -2.1208127534, 2.3810031454, 10.0000000000, 299.7000000000, 0.2316502810
         180, -1.87331884e-01, 4.98601596e-03, 0.00000000e+00, 0.00000000e+00, 0.00000000e+00, -1.40628321e-01, 4.98601596e-03, -1.87331884e-01, 0.00000000e+00, -3.75714570e+01, 0.00000000e+00, 0.00000000e+00, -2.49265674e+01, 1.50254253e+02, 0.00000000e+00, -5.87758893e+00, -2.19841190e+00, -3.75533931e+00, -4.01738071e-01, 0.00000000e+00, -2.1261507881, 2.3040371207, 10.0000000000, 299.7000000000, 0.2450208902
         190, -1.87322235e-01, 4.80023744e-03, 0.00000000e+00, 0.00000000e+00, 0.00000000e+00, -1.40631511e-01, 4.80023744e-03, -1.87322235e-01, 0.00000000e+00, -3.90235352e+01, 0.00000000e+00, 0.00000000e+00, -2.32081307e+01, 1.49955664e+02, 0.00000000e+00, -5.90378172e+00, -2.22019607e+00, -3.84988782e+00, -4.27316260e-01, 0.00000000e+00, -2.1398657985, 2.2321315904, 10.0000000000, 299.7000000000, 0.2587544282
         200, -1.87297684e-01, 4.65261701e-03, 0.00000000e+00, 0.00000000e+00, 0.00000000e+00, -1.40624346e-01, 4.65261701e-03, -1.87297684e-01, 0.00000000e+00, -4.02564156e+01, 0.00000000e+00, 0.00000000e+00, -2.19246295e+01, 1.49800970e+02, 0.00000000e+00, -5.92492901e+00, -2.23934190e+00, -3.93622271e+00, -4.48050498e-01, 0.00000000e+00, -2.1598810277, 2.1622726570, 10.0000000000, 299.7000000000, 0.2727265557
         210, -1.87276461e-01, 4.53083291e-03, 0.00000000e+00, 0.00000000e+00, 0.00000000e+00, -1.40616872e-01, 4.53083291e-03, -1.87276461e-01, 0.00000000e+00, -4.13337822e+01, 0.00000000e+00, 0.00000000e+00, -2.09266339e+01, 1.49751144e+02, 0.00000000e+00, -5.94064515e+00, -2.25694756e+00, -4.00122973e+00, -4.62221459e-01, 0.00000000e+00, -2.1840906739, 2.1000657128, 10.0000000000, 299.7000000000, 0.2861019810
         220, -1.87248556e-01, 4.42622813e-03, 0.00000000e+00, 0.00000000e+00, 0.00000000e+00, -1.40602994e-01, 4.42622813e-03, -1.87248556e-01, 0.00000000e+00, -4.23043166e+01, 0.00000000e+00, 0.00000000e+00, -2.01197044e+01, 1.49778868e+02, 0.00000000e+00, -5.95363266e+00, -2.27372509e+00, -4.01670592e+00, -4.72367416e-01, 0.00000000e+00, -2.2117085276, 2.0398328285, 10.0000000000, 299.7000000000, 0.2995635788
         230, -1.87218962e-01, 4.33275172e-03, 0.00000000e+00, 0.00000000e+00, 0.00000000e+00, -1.40584023e-01, 4.33275172e-03, -1.87218962e-01, 0.00000000e+00, -4.32101754e+01, 0.00000000e+00, 0.00000000e+00, -1.94468501e+01, 1.49864420e+02, 0.00000000e+00, -5.96463621e+00, -2.29016659e+00, -4.07181098e+00, -4.79405163e-01, 0.00000000e+00, -2.2415882751, 1.9846353225, 10.0000000000, 299.9749654907, 0.3136296074
         240, -1.87188328e-01, 4.24636336e-03, 0.00000000e+00, 0.00000000e+00, 0.00000000e+00, -1.40560018e-01, 4.24636336e-03, -1.87188328e-01, 0.00000000e+00, -4.40820326e+01, 0.00000000e+00, 0.00000000e+00, -1.88715772e+01, 1.49993124e+02, 0.00000000e+00, -5.96662947e+00, -2.30683630e+00, -4.03443513e+00, -4.79928546e-01, 0.00000000e+00, -2.2749741145, 1.9313298679, 10.0000000000, 299.7213334608, 0.3269514044
         250, -1.87156425e-01, 4.16472755e-03, 0.00000000e+00, 0.00000000e+00, 0.00000000e+00, -1.40529945e-01, 4.16472755e-03, -1.87156425e-01, 0.00000000e+00, -4.49384559e+01, 0.00000000e+00, 0.00000000e+00, -1.83718631e+01, 1.50152631e+02, 0.00000000e+00, -5.96105522e+00, -2.32465689e+00, -4.06162566e+00, -4.79814929e-01, 0.00000000e+00, -2.3123729901, 1.8789392417, 10.0000000000, 294.7592633450, 0.3403508464
         260, -1.87126545e-01, 4.08828316e-03, 0.00000000e+00, 0.00000000e+00, 0.00000000e+00, -1.40496176e-01, 4.08828316e-03, -1.87126545e-01, 0.00000000e+00, -4.57714247e+01, 0.00000000e+00, 0.00000000e+00, -1.79388864e+01, 1.50328241e+02, 0.00000000e+00, -5.94668578e+00, -2.34325678e+00, -4.02519264e+00, -4.77835097e-01, 0.00000000e+00, -2.3456328228, 1.8275473793, 10.0000000000, 281.1023020341, 0.3552132567
         270, -1.87098496e-01, 4.01676188e-03, 0.00000000e+00, 0.00000000e+00, 0.00000000e+00, -1.40458549e-01, 4.01676188e-03, -1.87098496e-01, 0.00000000e+00, -4.65794342e+01, 0.00000000e+00, 0.00000000e+00, -1.75595121e+01, 1.50509143e+02, 0.00000000e+00, -5.93269873e+00, -2.36214909e+00, -4.01199939e+00, -4.76674692e-01, 0.00000000e+00, -2.3758410432, 1.7831218427, 10.0000000000, 267.7798476458, 0.3685663541
         280, -1.87074956e-01, 3.94875985e-03, 0.00000000e+00, 0.00000000e+00, 0.00000000e+00, -1.40418187e-01, 3.94875985e-03, -1.87074956e-01, 0.00000000e+00, -4.73756225e+01, 0.00000000e+00, 0.00000000e+00, -1.72257733e+01, 1.50691225e+02, 0.00000000e+00, -5.92039982e+00, -2.38138468e+00, -3.97821684e+00, -4.72382246e-01, 0.00000000e+00, -2.4058794954, 1.7441677940, 10.0000000000, 256.2416422674, 0.3874077042
         290, -1.87054886e-01, 3.88358758e-03, 0.00000000e+00, 0.00000000e+00, 0.00000000e+00, -1.40374115e-01, 3.88358758e-03, -1.87054886e-01, 0.00000000e+00, -4.81654867e+01, 0.00000000e+00, 0.00000000e+00, -1.69353754e+01, 1.50871996e+02, 0.00000000e+00, -5.91022779e+00, -2.40120075e+00, -3.91716277e+00, -4.64046813e-01, 0.00000000e+00, -2.4343037566, 1.7118921978, 10.0000000000, 247.3862824026, 0.4062071244
         300, -1.87039655e-01, 3.82096279e-03, 0.00000000e+00, 0.00000000e+00, 0.00000000e+00, -1.40327020e-01, 3.82096279e-03, -1.87039655e-01, 0.00000000e+00, -4.89509230e+01, 0.00000000e+00, 0.00000000e+00, -1.66843696e+01, 1.51050352e+02, 0.00000000e+00, -5.90158904e+00, -2.42223403e+00, -3.87193519e+00, -4.53146714e-01, 0.00000000e+00, -2.4632830568, 1.6883766554, 10.0000000000, 240.0967174193, 0.4257312417
         310, -1.87030735e-01, 3.76120798e-03, 0.00000000e+00, 0.00000000e+00, 0.00000000e+00, -1.40279217e-01, 3.76120798e-03, -1.87030735e-01, 0.00000000e+00, -4.97262412e+01, 0.00000000e+00, 0.00000000e+00, -1.64679553e+01, 1.51224438e+02, 0.00000000e+00, -5.89224122e+00, -2.44500783e+00, -3.80667692e+00, -4.39336015e-01, 0.00000000e+00, -2.4937888364, 1.6742639612, 10.0000000000, 232.3877789937, 0.4456519167
         320, -1.87030250e-01, 3.70471837e-03, 0.00000000e+00, 0.00000000e+00, 0.00000000e+00, -1.40234474e-01, 3.70471837e-03, -1.87030250e-01, 0.00000000e+00, -5.04843369e+01, 0.00000000e+00, 0.00000000e+00, -1.62812720e+01, 1.51392623e+02, 0.00000000e+00, -5.88255535e+00, -2.46996472e+00, -3.75399889e+00, -4.25121220e-01, 0.00000000e+00, -2.5243315586, 1.6701978363, 10.0000000000, 224.9120371353, 0.4652672331
         330, -1.87041532e-01, 3.65161136e-03, 0.00000000e+00, 0.00000000e+00, 0.00000000e+00, -1.40199059e-01, 3.65161136e-03, -1.87041532e-01, 0.00000000e+00, -5.12216425e+01, 0.00000000e+00, 0.00000000e+00, -1.61183358e+01, 1.51554165e+02, 0.00000000e+00, -5.87315510e+00, -2.49734488e+00, -3.70517188e+00, -4.11774254e-01, 0.00000000e+00, -2.5560098367, 1.6732487193, 10.0000000000, 217.5608327288, 0.4847583850
         340, -1.87067098e-01, 3.60168837e-03, 0.00000000e+00, 0.00000000e+00, 0.00000000e+00, -1.40179532e-01, 3.60168837e-03, -1.87067098e-01, 0.00000000e+00, -5.19387240e+01, 0.00000000e+00, 0.00000000e+00, -1.59744405e+01, 1.51709441e+02, 0.00000000e+00, -5.86745816e+00, -2.52711843e+00, -3.66478753e+00, -4.03130494e-01, 0.00000000e+00, -2.5887907060, 1.6856026689, 10.0000000000, 212.8671901884, 0.5034697851
         350, -1.87107221e-01, 3.55407552e-03, 0.00000000e+00, 0.00000000e+00, 0.00000000e+00, -1.40179142e-01, 3.55407552e-03, -1.87107221e-01, 0.00000000e+00, -5.26458202e+01, 0.00000000e+00, 0.00000000e+00, -1.58440335e+01, 1.51861285e+02, 0.00000000e+00, -5.87142870e+00, -2.55888891e+00, -3.64272611e+00, -4.05336710e-01, 0.00000000e+00, -2.6223188893, 1.7097369032, 10.0000000000, 213.2367691719, 0.5218943834
         360, -1.87157503e-01, 3.50791874e-03, 0.00000000e+00, 0.00000000e+00, 0.00000000e+00, -1.40194771e-01, 3.50791874e-03, -1.87157503e-01, 0.00000000e+00, -5.33528616e+01, 0.00000000e+00, 0.00000000e+00, -1.57219475e+01, 1.52012532e+02, 0.00000000e+00, -5.89129740e+00, -2.59153344e+00, -3.63928546e+00, -4.23929143e-01, 0.00000000e+00, -2.6551827842, 1.7450328346, 10.0000000000, 217.7598168495, 0.5403123101
         370, -1.87210418e-01, 3.46262087e-03, 0.00000000e+00, 0.00000000e+00, 0.00000000e+00, -1.40216958e-01, 3.46262087e-03, -1.87210418e-01, 0.00000000e+00, -5.40661034e+01, 0.00000000e+00, 0.00000000e+00, -1.56045917e+01, 1.52165272e+02, 0.00000000e+00, -5.92330981e+00, -2.62378802e+00, -3.65649748e+00, -4.54503705e-01, 0.00000000e+00, -2.6861192404, 1.7899993100, 10.0000000000, 225.7292894376, 0.5586482247
         380, -1.87260666e-01, 3.41802565e-03, 0.00000000e+00, 0.00000000e+00, 0.00000000e+00, -1.40237949e-01, 3.41802565e-03, -1.87260666e-01, 0.00000000e+00, -5.47862085e+01, 0.00000000e+00, 0.00000000e+00, -1.54899646e+01, 1.52320124e+02, 0.00000000e+00, -5.95744969e+00, -2.65522134e+00, -3.68261217e+00, -4.87247296e-01, 0.00000000e+00, -2.7149681907, 1.8384231055, 10.0000000000, 234.8346635084, 0.5771716356
         390, -1.87307254e-01, 3.37443720e-03, 0.00000000e+00, 0.00000000e+00, 0.00000000e+00, -1.40255904e-01, 3.37443720e-03, -1.87307254e-01, 0.00000000e+00, -5.55077018e+01, 0.00000000e+00, 0.00000000e+00, -1.53780358e+01, 1.52476063e+02, 0.00000000e+00, -5.98792675e+00, -2.68611954e+00, -3.70864517e+00, -5.16887957e-01, 0.00000000e+00, -2.7417688229, 1.8848218184, 10.0000000000, 243.3277329856, 0.5967241168
         400, -1.87351004e-01, 3.33224714e-03, 0.00000000e+00, 0.00000000e+00, 0.00000000e+00, -1.40271645e-01, 3.33224714e-03, -1.87351004e-01, 0.00000000e+00, -5.62236221e+01, 0.00000000e+00, 0.00000000e+00, -1.52698398e+01, 1.52631744e+02, 0.00000000e+00, -6.01502285e+00, -2.71689051e+00, -3.73290646e+00, -5.43611821e-01, 0.00000000e+00, -2.7670485700, 1.9279531473, 10.0000000000, 251.1337634116, 0.6164783756
         410, -1.87392648e-01, 3.29178185e-03, 0.00000000e+00, 0.00000000e+00, 0.00000000e+00, -1.40286053e-01, 3.29178185e-03, -1.87392648e-01, 0.00000000e+00, -5.69274202e+01, 0.00000000e+00, 0.00000000e+00, -1.51665315e+01, 1.52786058e+02, 0.00000000e+00, -6.03930640e+00, -2.74781559e+00, -3.75416515e+00, -5.67859864e-01, 0.00000000e+00, -2.7909887851, 1.9676341502, 10.0000000000, 258.3184407566, 0.6358039459
         420, -1.87432753e-01, 3.25327990e-03, 0.00000000e+00, 0.00000000e+00, 0.00000000e+00, -1.40299786e-01, 3.25327990e-03, -1.87432753e-01, 0.00000000e+00, -5.76134727e+01, 0.00000000e+00, 0.00000000e+00, -1.50690357e+01, 1.52938210e+02, 0.00000000e+00, -6.06197288e+00, -2.77905714e+00, -3.77432842e+00, -5.90726737e-01, 0.00000000e+00, -2.8142607820, 2.0043582467, 10.0000000000, 265.1864131873, 0.6550041318
         430, -1.87471599e-01, 3.21689900e-03, 0.00000000e+00, 0.00000000e+00, 0.00000000e+00, -1.40313168e-01, 3.21689900e-03, -1.87471599e-01, 0.00000000e+00, -5.82771169e+01, 0.00000000e+00, 0.00000000e+00, -1.49778040e+01, 1.53087674e+02, 0.00000000e+00, -6.08335673e+00, -2.81075206e+00, -3.79294974e+00, -6.12477845e-01, 0.00000000e+00, -2.8370537159, 2.0383776238, 10.0000000000, 271.8312540721, 0.6734004736
         440, -1.87509378e-01, 3.18273466e-03, 0.00000000e+00, 0.00000000e+00, 0.00000000e+00, -1.40326412e-01, 3.18273466e-03, -1.87509378e-01, 0.00000000e+00, -5.89145494e+01, 0.00000000e+00, 0.00000000e+00, -1.48928033e+01, 1.53234104e+02, 0.00000000e+00, -6.10404934e+00, -2.84297398e+00, -3.81127663e+00, -6.33667046e-01, 0.00000000e+00, -2.8599588846, 2.0700099570, 10.0000000000, 278.4022357082, 0.6916007956
         450, -1.87546212e-01, 3.15082173e-03, 0.00000000e+00, 0.00000000e+00, 0.00000000e+00, -1.40339652e-01, 3.15082173e-03, -1.87546212e-01, 0.00000000e+00, -5.95229525e+01, 0.00000000e+00, 0.00000000e+00, -1.48135383e+01, 1.53377326e+02, 0.00000000e+00, -6.12412554e+00, -2.87579918e+00, -3.82906619e+00, -6.54328093e-01, 0.00000000e+00, -2.8833160203, 2.0993718855, 10.0000000000, 284.9339119201, 0.7097457012
         460, -1.87582177e-01, 3.12115048e-03, 0.00000000e+00, 0.00000000e+00, 0.00000000e+00, -1.40352981e-01, 3.12115048e-03, -1.87582177e-01, 0.00000000e+00, -6.01003309e+01, 0.00000000e+00, 0.00000000e+00, -1.47391952e+01, 1.53517275e+02, 0.00000000e+00, -6.14398895e+00, -2.90929492e+00, -3.84679534e+00, -6.74863100e-01, 0.00000000e+00, -2.9073635029, 2.1267185772, 10.0000000000, 291.5275419369, 0.7278657913
         470, -1.87617319e-01, 3.09366546e-03, 0.00000000e+00, 0.00000000e+00, 0.00000000e+00, -1.40366449e-01, 3.09366546e-03, -1.87617319e-01, 0.00000000e+00, -6.06456391e+01, 0.00000000e+00, 0.00000000e+00, -1.46687349e+01, 1.53654021e+02, 0.00000000e+00, -6.16386531e+00, -2.94353170e+00, -3.86456080e+00, -6.95473945e-01, 0.00000000e+00, -2.9324321843, 2.1522281540, 10.0000000000, 298.2691197665, 0.7463105162
         480, -1.87651849e-01, 3.06847429e-03, 0.00000000e+00, 0.00000000e+00, 0.00000000e+00, -1.40380787e-01, 3.06847429e-03, -1.87651849e-01, 0.00000000e+00, -6.11547732e+01, 0.00000000e+00, 0.00000000e+00, -1.46012790e+01, 1.53786590e+02, 0.00000000e+00, -6.18806334e+00, -2.97848177e+00, -3.88541484e+00, -7.20382190e-01, 0.00000000e+00, -2.9591267174, 2.1672058118, 10.0000000000, 299.7000000000, 0.7663591385
         490, -1.87685378e-01, 3.04573910e-03, 0.00000000e+00, 0.00000000e+00, 0.00000000e+00, -1.40395731e-01, 3.04573910e-03, -1.87685378e-01, 0.00000000e+00, -6.16222771e+01, 0.00000000e+00, 0.00000000e+00, -1.45368763e+01, 1.53913434e+02, 0.00000000e+00, -6.21679031e+00, -3.01376615e+00, -3.91150262e+00, -7.49684515e-01, 0.00000000e+00, -2.9867651962, 2.1790592226, 10.0000000000, 299.7000000000, 0.7861847321
         500, -1.87717524e-01, 3.02521772e-03, 0.00000000e+00, 0.00000000e+00, 0.00000000e+00, -1.40410565e-01, 3.02521772e-03, -1.87717524e-01, 0.00000000e+00, -6.20509139e+01, 0.00000000e+00, 0.00000000e+00, -1.44744941e+01, 1.54035117e+02, 0.00000000e+00, -6.24529061e+00, -3.04928645e+00, -3.93766418e+00, -7.78856058e-01, 0.00000000e+00, -3.0153057581, 2.1892001435, 10.0000000000, 299.7000000000, 0.8056547801
         510, -1.87748291e-01, 3.00667427e-03, 0.00000000e+00, 0.00000000e+00, 0.00000000e+00, -1.40425329e-01, 3.00667427e-03, -1.87748291e-01, 0.00000000e+00, -6.24438414e+01, 0.00000000e+00, 0.00000000e+00, -1.44131869e+01, 1.54152148e+02, 0.00000000e+00, -6.27505776e+00, -3.08507613e+00, -3.96492417e+00, -8.09358916e-01, 0.00000000e+00, -3.0449327963, 2.1977642592, 10.0000000000, 299.7000000000, 0.8247866193
         520, -1.87777512e-01, 2.98990277e-03, 0.00000000e+00, 0.00000000e+00, 0.00000000e+00, -1.40439650e-01, 2.98990277e-03, -1.87777512e-01, 0.00000000e+00, -6.28038858e+01, 0.00000000e+00, 0.00000000e+00, -1.43523332e+01, 1.54264984e+02, 0.00000000e+00, -6.30494332e+00, -3.12112096e+00, -3.99298365e+00, -8.40064586e-01, 0.00000000e+00, -3.0754858608, 2.2049328936, 10.0000000000, 299.7000000000, 0.8432875554
         530, -1.87805315e-01, 2.97472273e-03, 0.00000000e+00, 0.00000000e+00, 0.00000000e+00, -1.40453625e-01, 2.97472273e-03, -1.87805315e-01, 0.00000000e+00, -6.31337212e+01, 0.00000000e+00, 0.00000000e+00, -1.42914829e+01, 1.54374038e+02, 0.00000000e+00, -6.33428841e+00, -3.15746717e+00, -4.02052354e+00, -8.70386101e-01, 0.00000000e+00, -3.1067346765, 2.2107629813, 10.0000000000, 299.7000000000, 0.8616516312
         540, -1.87831834e-01, 2.96097376e-03, 0.00000000e+00, 0.00000000e+00, 0.00000000e+00, -1.40467428e-01, 2.96097376e-03, -1.87831834e-01, 0.00000000e+00, -6.34358322e+01, 0.00000000e+00, 0.00000000e+00, -1.42303364e+01, 1.54479678e+02, 0.00000000e+00, -6.36466418e+00, -3.19416402e+00, -4.04910446e+00, -9.01880420e-01, 0.00000000e+00, -3.1387821510, 2.2153932726, 10.0000000000, 299.7000000000, 0.8812287132
         550, -1.87856989e-01, 2.94851311e-03, 0.00000000e+00, 0.00000000e+00, 0.00000000e+00, -1.40480878e-01, 2.94851311e-03, -1.87856989e-01, 0.00000000e+00, -6.37124482e+01, 0.00000000e+00, 0.00000000e+00, -1.41687146e+01, 1.54582235e+02, 0.00000000e+00, -6.39535712e+00, -3.23115785e+00, -4.07848795e+00, -9.33831724e-01, 0.00000000e+00, -3.1716684122, 2.2189739129, 10.0000000000, 299.7000000000, 0.8999762297
         560, -1.87880850e-01, 2.93721387e-03, 0.00000000e+00, 0.00000000e+00, 0.00000000e+00, -1.40494025e-01, 2.93721387e-03, -1.87880850e-01, 0.00000000e+00, -6.39656691e+01, 0.00000000e+00, 0.00000000e+00, -1.41065322e+01, 1.54681995e+02, 0.00000000e+00, -6.42670615e+00, -3.26847917e+00, -4.10882193e+00, -9.66646444e-01, 0.00000000e+00, -3.2051385177, 2.2215687329, 10.0000000000, 299.7000000000, 0.9183237592
         570, -1.87903401e-01, 2.92696308e-03, 0.00000000e+00, 0.00000000e+00, 0.00000000e+00, -1.40506782e-01, 2.92696308e-03, -1.87903401e-01, 0.00000000e+00, -6.41973936e+01, 0.00000000e+00, 0.00000000e+00, -1.40437682e+01, 1.54779216e+02, 0.00000000e+00, -6.45878620e+00, -3.30611432e+00, -4.14004518e+00, -1.00041876e+00, 0.00000000e+00, -3.2393105410, 2.2232937315, 10.0000000000, 299.7000000000, 0.9378860474
         580, -1.87924629e-01, 2.91765994e-03, 0.00000000e+00, 0.00000000e+00, 0.00000000e+00, -1.40519039e-01, 2.91765994e-03, -1.87924629e-01, 0.00000000e+00, -6.44093668e+01, 0.00000000e+00, 0.00000000e+00, -1.39804521e+01, 1.54874124e+02, 0.00000000e+00, -6.49086377e+00, -3.34403218e+00, -4.17172905e+00, -1.03443982e+00, 0.00000000e+00, -3.2741550951, 2.2242239741, 10.0000000000, 299.7000000000, 0.9579978506
         590, -1.87944613e-01, 2.90921470e-03, 0.00000000e+00, 0.00000000e+00, 0.00000000e+00, -1.40530846e-01, 2.90921470e-03, -1.87944613e-01, 0.00000000e+00, -6.46032116e+01, 0.00000000e+00, 0.00000000e+00, -1.39166677e+01, 1.54966900e+02, 0.00000000e+00, -6.52331215e+00, -3.38222974e+00, -4.20408387e+00, -1.06915805e+00, 0.00000000e+00, -3.3096742934, 2.2244161007, 10.0000000000, 299.7000000000, 0.9782478571
         600, -1.87963354e-01, 2.90154769e-03, 0.00000000e+00, 0.00000000e+00, 0.00000000e+00, -1.40542125e-01, 2.90154769e-03, -1.87963354e-01, 0.00000000e+00, -6.47803772e+01, 0.00000000e+00, 0.00000000e+00, -1.38525201e+01, 1.55057693e+02, 0.00000000e+00, -6.55558766e+00, -3.42067741e+00, -4.23708519e+00, -1.10404262e+00, 0.00000000e+00, -3.3456559469, 2.2239627517, 10.0000000000, 299.7000000000, 0.9977391919
         610, -1.87980959e-01, 2.89458764e-03, 0.00000000e+00, 0.00000000e+00, 0.00000000e+00, -1.40552950e-01, 2.89458764e-03, -1.87980959e-01, 0.00000000e+00, -6.49422240e+01, 0.00000000e+00, 0.00000000e+00, -1.37881139e+01, 1.55146631e+02, 0.00000000e+00, -6.58763683e+00, -3.45942400e+00, -4.27001006e+00, -1.13911779e+00, 0.00000000e+00, -3.3818709368, 2.2228908312, 10.0000000000, 299.7000000000, 1.0160266439
         620, -1.87997472e-01, 2.88827019e-03, 0.00000000e+00, 0.00000000e+00, 0.00000000e+00, -1.40563333e-01, 2.88827019e-03, -1.87997472e-01, 0.00000000e+00, -6.50899879e+01, 0.00000000e+00, 0.00000000e+00, -1.37235513e+01, 1.55233828e+02, 0.00000000e+00, -6.62023596e+00, -3.49847044e+00, -4.30392921e+00, -1.17523028e+00, 0.00000000e+00, -3.4184561629, 2.2212798968, 10.0000000000, 299.7000000000, 1.0341808518
         630, -1.88012894e-01, 2.88253693e-03, 0.00000000e+00, 0.00000000e+00, 0.00000000e+00, -1.40573205e-01, 2.88253693e-03, -1.88012894e-01, 0.00000000e+00, -6.52247996e+01, 0.00000000e+00, 0.00000000e+00, -1.36589338e+01, 1.55319376e+02, 0.00000000e+00, -6.65289205e+00, -3.53776471e+00, -4.33867128e+00, -1.21195169e+00, 0.00000000e+00, -3.4554375649, 2.2191811538, 10.0000000000, 299.7000000000, 1.0521422784
         640, -1.88027272e-01, 2.87733485e-03, 0.00000000e+00, 0.00000000e+00, 0.00000000e+00, -1.40582561e-01, 2.87733485e-03, -1.88027272e-01, 0.00000000e+00, -6.53477200e+01, 0.00000000e+00, 0.00000000e+00, -1.35943607e+01, 1.55403334e+02, 0.00000000e+00, -6.68533839e+00, -3.57728287e+00, -4.37388643e+00, -1.24908523e+00, 0.00000000e+00, -3.4928108025, 2.2166291868, 10.0000000000, 299.7000000000, 1.0701229095
         650, -1.88040658e-01, 2.87261575e-03, 0.00000000e+00, 0.00000000e+00, 0.00000000e+00, -1.40591412e-01, 2.87261575e-03, -1.88040658e-01, 0.00000000e+00, -6.54597323e+01, 0.00000000e+00, 0.00000000e+00, -1.35299265e+01, 1.55485727e+02, 0.00000000e+00, -6.71749101e+00, -3.61701530e+00, -4.40963163e+00, -1.28663053e+00, 0.00000000e+00, -3.5305847200, 2.2136633847, 10.0000000000, 299.7000000000, 1.0881337047
         660, -1.88053100e-01, 2.86833581e-03, 0.00000000e+00, 0.00000000e+00, 0.00000000e+00, -1.40599764e-01, 2.86833581e-03, -1.88053100e-01, 0.00000000e+00, -6.55617445e+01, 0.00000000e+00, 0.00000000e+00, -1.34657199e+01, 1.55566616e+02, 0.00000000e+00, -6.74922962e+00, -3.65692552e+00, -4.44598347e+00, -1.32455067e+00, 0.00000000e+00, -3.5687863286, 2.2103217054, 10.0000000000, 299.7000000000, 1.1089779377
         670, -1.88064643e-01, 2.86445519e-03, 0.00000000e+00, 0.00000000e+00, 0.00000000e+00, -1.40607621e-01, 2.86445519e-03, -1.88064643e-01, 0.00000000e+00, -6.56545942e+01, 0.00000000e+00, 0.00000000e+00, -1.34018219e+01, 1.55646046e+02, 0.00000000e+00, -6.78060960e+00, -3.69701864e+00, -4.48282028e+00, -1.36302090e+00, 0.00000000e+00, -3.6072860471, 2.2066364484, 10.0000000000, 299.7000000000, 1.1301367005
         680, -1.88075325e-01, 2.86093752e-03, 0.00000000e+00, 0.00000000e+00, 0.00000000e+00, -1.40614971e-01, 2.86093752e-03, -1.88075325e-01, 0.00000000e+00, -6.57390535e+01, 0.00000000e+00, 0.00000000e+00, -1.33383043e+01, 1.55724028e+02, 0.00000000e+00, -6.81108424e+00, -3.73727114e+00, -4.51982208e+00, -1.40148113e+00, 0.00000000e+00, -3.6460038257, 2.2026390153, 10.0000000000, 299.7000000000, 1.1511535565
         690, -1.88085219e-01, 2.85774964e-03, 0.00000000e+00, 0.00000000e+00, 0.00000000e+00, -1.40621863e-01, 2.85774964e-03, -1.88085219e-01, 0.00000000e+00, -6.58158490e+01, 0.00000000e+00, 0.00000000e+00, -1.32752309e+01, 1.55800562e+02, 0.00000000e+00, -6.84064316e+00, -3.77770308e+00, -4.55685637e+00, -1.44002918e+00, 0.00000000e+00, -3.6848385412, 2.1983463627, 10.0000000000, 299.7000000000, 1.1707677046
         700, -1.88094374e-01, 2.85486125e-03, 0.00000000e+00, 0.00000000e+00, 0.00000000e+00, -1.40628320e-01, 2.85486125e-03, -1.88094374e-01, 0.00000000e+00, -6.58856448e+01, 0.00000000e+00, 0.00000000e+00, -1.32126578e+01, 1.55875657e+02, 0.00000000e+00, -6.86948355e+00, -3.81831070e+00, -4.59439829e+00, -1.47901111e+00, 0.00000000e+00, -3.7239375349, 2.1937895476, 10.0000000000, 299.7000000000, 1.1902489980