TITLE = "SU2 Simulation"
VARIABLES = "Iteration","CL","CD","CSF","CMx","CMy","CMz","CFx","CFy","CFz","CL/CD","AoA","Custom_ObjFunc","HeatFlux_Total","HeatFlux_Maximum","Temperature_Total","Res_Flow[0]","Res_Flow[1]","Res_Flow[2]","Res_Flow[3]","Res_Flow[4]"," Res_Turb[0]"," Res_Turb[1]"," Res_Turb[2]"," Res_Turb[3]","Linear_Solver_Iterations","CFL_Number","Time(min)"
ZONE T= "Convergence history"
           0, -4.07953174e-01, 1.13662807e-01, 0.00000000e+00, 0.00000000e+00, 0.00000000e+00, -3.05967625e-01, 1.13662807e-01, -4.07953174e-01, 0.00000000e+00, -3.58915274e+00, 0.00000000e+00, 0.00000000e+00, -1.50998966e+07, 1.36025280e+07, 0.00000000e+00, -1.56625812e+01, -6.11260646e+00, -6.64721471e+00, 4.97621321e+00, 0.00000000e+00, 4.6555459533, 4.1118804900, -7.4021440814, 9.7310735147, 1.0000000000, 1.0000000000, 0.0013117552
          10, -1.92852529e-01, 6.00932932e-02, 0.00000000e+00, 0.00000000e+00, 0.00000000e+00, -1.44677158e-01, 6.00932932e-02, -1.92852529e-01, 0.00000000e+00, -3.20921884e+00, 0.00000000e+00, 0.00000000e+00, -3.10295828e+06, 2.79457410e+06, 0.00000000e+00, -1.21897093e+00, 1.67010218e+00, 1.22016669e+00, 4.56951830e+00, 0.00000000e+00, 2.1698973758, 8.6580795235, -0.7014543798, 5.3788538159, 2.0000000000, 1.0010000000, 0.0122959932
          20, -9.34011579e-02, 3.58317375e-02, 0.00000000e+00, 0.00000000e+00, 0.00000000e+00, -7.00716980e-02, 3.58317375e-02, -9.34011579e-02, 0.00000000e+00, -2.60666003e+00, 0.00000000e+00, 0.00000000e+00, -8.42918048e+05, 7.61199406e+05, 0.00000000e+00, -1.29724872e+00, 1.58891170e+00, 1.21524844e+00, 4.46945248e+00, 0.00000000e+00, 1.8932239760, 8.3844498628, -0.9296898955, 4.7962803320, 2.0000000000, 1.0770415472, 0.0228351116
          30, -5.08923081e-02, 2.81083517e-02, 0.00000000e+00, 0.00000000e+00, 0.00000000e+00, -3.81761412e-02, 2.81083517e-02, -5.08923081e-02, 0.00000000e+00, -1.81057604e+00, 0.00000000e+00, 0.00000000e+00, -3.19373309e+05, 3.14833968e+05, 0.00000000e+00, -1.44005069e+00, 1.43032318e+00, 1.12308307e+00, 4.32063653e+00, 0.00000000e+00, 1.7002654794, 8.2089356963, -1.0825926643, 4.6057478403, 2.0000000000, 1.2728437776, 0.0335729678
          40, -3.05278751e-02, 2.44463731e-02, 0.00000000e+00, 0.00000000e+00, 0.00000000e+00, -2.28981927e-02, 2.44463731e-02, -3.05278751e-02, 0.00000000e+00, -1.24876909e+00, 0.00000000e+00, 0.00000000e+00, -1.92064618e+05, 2.15337732e+05, 0.00000000e+00, -1.53846058e+00, 1.32127892e+00, 1.04532173e+00, 4.22107026e+00, 0.00000000e+00, 1.5530447396, 8.0981648212, -1.1968525374, 4.0808672162, 2.0000000000, 1.4316562642, 0.0441214879
          50, -2.03498792e-02, 2.21788478e-02, 0.00000000e+00, 0.00000000e+00, 0.00000000e+00, -1.52633673e-02, 2.21788478e-02, -2.03498792e-02, 0.00000000e+00, -9.17535454e-01, 0.00000000e+00, 0.00000000e+00, -1.70236239e+05, 1.78390342e+05, 0.00000000e+00, -1.61018624e+00, 1.24401896e+00, 9.79146543e-01, 4.14772739e+00, 0.00000000e+00, 1.4452979052, 8.0165933776, -1.2922179211, 3.7096126607, 3.0000000000, 1.5582395863, 0.0548820019
          60, -1.47139006e-02, 2.04816983e-02, 0.00000000e+00, 0.00000000e+00, 0.00000000e+00, -1.10358483e-02, 2.04816983e-02, -1.47139006e-02, 0.00000000e+00, -7.18392606e-01, 0.00000000e+00, 0.00000000e+00, -1.62440488e+05, 1.59004917e+05, 0.00000000e+00, -1.66832525e+00, 1.18316436e+00, 9.21235283e-01, 4.08816086e+00, 0.00000000e+00, 1.3561819198, 7.9482115862, -1.3857808741, 3.7247551983, 3.0000000000, 1.6692451323, 0.0659735203
          70, -1.13440395e-02, 1.91109131e-02, 0.00000000e+00, 0.00000000e+00, 0.00000000e+00, -8.50798913e-03, 1.91109131e-02, -1.13440395e-02, 0.00000000e+00, -5.93589615e-01, 0.00000000e+00, 0.00000000e+00, -1.50778296e+05, 1.43297932e+05, 0.00000000e+00, -1.71734358e+00, 1.13274896e+00, 8.70554595e-01, 4.03777446e+00, 0.00000000e+00, 1.2799906822, 7.8885221293, -1.4838665683, 3.7394899400, 4.0000000000, 1.7679442920, 0.0771865050
          80, -9.01457238e-03, 1.79320783e-02, 0.00000000e+00, 0.00000000e+00, 0.00000000e+00, -6.76046605e-03, 1.79320783e-02, -9.01457238e-03, 0.00000000e+00, -5.02706503e-01, 0.00000000e+00, 0.00000000e+00, -1.40031451e+05, 1.30900080e+05, 0.00000000e+00, -1.75514411e+00, 1.09393277e+00, 8.30603120e-01, 3.99858597e+00, 0.00000000e+00, 1.2150979573, 7.8345081649, -1.5886748392, 3.6169679938, 3.0000000000, 1.8489487466, 0.0883946061
          90, -7.49784505e-03, 1.69208248e-02, 0.00000000e+00, 0.00000000e+00, 0.00000000e+00, -5.62273654e-03, 1.69208248e-02, -7.49784505e-03, 0.00000000e+00, -4.43113450e-01, 0.00000000e+00, 0.00000000e+00, -1.27758869e+05, 1.18576404e+05, 0.00000000e+00, -1.77630521e+00, 1.07121075e+00, 8.07102068e-01, 3.97563080e+00, 0.00000000e+00, 1.1574333823, 7.7859749322, -1.7007477175, 3.5701926718, 4.0000000000, 1.8987749884, 0.0998431921
         100, -6.41225101e-03, 1.60434192e-02, 0.00000000e+00, 0.00000000e+00, 0.00000000e+00, -4.80837343e-03, 1.60434192e-02, -6.41225101e-03, 0.00000000e+00, -3.99681074e-01, 0.00000000e+00, 0.00000000e+00, -1.16414016e+05, 1.07523718e+05, 0.00000000e+00, -1.77770823e+00, 1.06640872e+00, 8.03988001e-01, 3.97125031e+00, 0.00000000e+00, 1.1081261760, 7.7442517364, -1.8166971143, 3.3619188118, 3.0000000000, 1.9012325235, 0.1110025485
         110, -5.71545467e-03, 1.52974765e-02, 0.00000000e+00, 0.00000000e+00, 0.00000000e+00, -4.28607852e-03, 1.52974765e-02, -5.71545467e-03, 0.00000000e+00, -3.73620751e-01, 0.00000000e+00, 0.00000000e+00, -1.06438612e+05, 9.77647528e+04, 0.00000000e+00, -1.76575552e+00, 1.07241501e+00, 8.14866320e-01, 3.97833682e+00, 0.00000000e+00, 1.0658171817, 7.7076918223, -1.9315209108, 3.2251765896, 3.0000000000, 1.8300490573, 0.1219086409
         120, -5.26642301e-03, 1.46678672e-02, 0.00000000e+00, 0.00000000e+00, 0.00000000e+00, -3.94992859e-03, 1.46678672e-02, -5.26642301e-03, 0.00000000e+00, -3.59044907e-01, 0.00000000e+00, 0.00000000e+00, -9.73191812e+04, 8.89508762e+04, 0.00000000e+00, -1.75102313e+00, 1.07933306e+00, 8.28572525e-01, 3.98671961e+00, 0.00000000e+00, 1.0294141793, 7.6056076047, -2.0421378046, 3.1258711835, 3.0000000000, 1.7387784743, 0.1330013434
         130, -4.95258515e-03, 1.41256332e-02, 0.00000000e+00, 0.00000000e+00, 0.00000000e+00, -3.71520689e-03, 1.41256332e-02, -4.95258515e-03, 0.00000000e+00, -3.50609781e-01, 0.00000000e+00, 0.00000000e+00, -8.85456979e+04, 8.07839762e+04, 0.00000000e+00, -1.74134401e+00, 1.08102786e+00, 8.36595255e-01, 3.98982205e+00, 0.00000000e+00, 0.9927623070, 7.7756601066, -2.1500297121, 3.1856067505, 3.0000000000, 1.6779832285, 0.1438419739
         140, -4.73354120e-03, 1.36428523e-02, 0.00000000e+00, 0.00000000e+00, 0.00000000e+00, -3.55087157e-03, 1.36428523e-02, -4.73354120e-03, 0.00000000e+00, -3.46961259e-01, 0.00000000e+00, 0.00000000e+00, -8.01505328e+04, 7.33084370e+04, 0.00000000e+00, -1.74225633e+00, 1.07330881e+00, 8.33093760e-01, 3.98310501e+00, 0.00000000e+00, 0.9556889129, 7.8993874145, -2.2570131779, 3.2583372824, 3.0000000000, 1.6695876065, 0.1547641158
         150, -4.56308085e-03, 1.31971446e-02, 0.00000000e+00, 0.00000000e+00, 0.00000000e+00, -3.42157139e-03, 1.31971446e-02, -4.56308085e-03, 0.00000000e+00, -3.45762738e-01, 0.00000000e+00, 0.00000000e+00, -7.24671270e+04, 6.65054382e+04, 0.00000000e+00, -1.75915156e+00, 1.05096139e+00, 8.13158075e-01, 3.96099871e+00, 0.00000000e+00, 0.9182718541, 7.9635335124, -2.3671175392, 3.3411653386, 3.0000000000, 1.6971931582, 0.1658809861
         160, -4.40704358e-03, 1.27745309e-02, 0.00000000e+00, 0.00000000e+00, 0.00000000e+00, -3.30239922e-03, 1.27745309e-02, -4.40704358e-03, 0.00000000e+00, -3.44986724e-01, 0.00000000e+00, 0.00000000e+00, -6.51595259e+04, 6.00658623e+04, 0.00000000e+00, -1.79417274e+00, 1.01048080e+00, 7.75747880e-01, 3.92031363e+00, 0.00000000e+00, 0.8801303408, 7.9930709732, -2.4832321260, 3.3709113000, 3.0000000000, 1.7626670574, 0.1767181635
         170, -4.26674955e-03, 1.23646575e-02, 0.00000000e+00, 0.00000000e+00, 0.00000000e+00, -3.19443384e-03, 1.23646575e-02, -4.26674955e-03, 0.00000000e+00, -3.45076243e-01, 0.00000000e+00, 0.00000000e+00, -5.83129505e+04, 5.40406681e+04, 0.00000000e+00, -1.85110524e+00, 9.46163955e-01, 7.16414732e-01, 3.85533978e+00, 0.00000000e+00, 0.8408508164, 8.0004854050, -2.6087281006, 3.4032596330, 3.0000000000, 1.8791879351, 0.1876018882
         180, -4.14429390e-03, 1.19582251e-02, 0.00000000e+00, 0.00000000e+00, 0.00000000e+00, -3.09834274e-03, 1.19582251e-02, -4.14429390e-03, 0.00000000e+00, -3.46564300e-01, 0.00000000e+00, 0.00000000e+00, -5.17363794e+04, 4.86175705e+04, 0.00000000e+00, -1.92849814e+00, 8.61017463e-01, 6.34143171e-01, 3.76892808e+00, 0.00000000e+00, 0.7998251823, 7.9911575302, -2.7461696895, 3.4517670060, 3.0000000000, 2.0502638886, 0.1986579577
         190, -4.00613359e-03, 1.15439713e-02, 0.00000000e+00, 0.00000000e+00, 0.00000000e+00, -2.98373181e-03, 1.15439713e-02, -4.00613359e-03, 0.00000000e+00, -3.47032532e-01, 0.00000000e+00, 0.00000000e+00, -4.56001914e+04, 4.38308197e+04, 0.00000000e+00, -2.02955018e+00, 7.54107157e-01, 5.25772871e-01, 3.65924615e+00, 0.00000000e+00, 0.7562838590, 7.9666801533, -2.9030799382, 3.4724162923, 3.0000000000, 2.2974730656, 0.2095074534
         200, -3.84443807e-03, 1.11128505e-02, 0.00000000e+00, 0.00000000e+00, 0.00000000e+00, -2.82807864e-03, 1.11128505e-02, -3.84443807e-03, 0.00000000e+00, -3.45945272e-01, 0.00000000e+00, 0.00000000e+00, -3.96682473e+04, 3.92601392e+04, 0.00000000e+00, -2.15470599e+00, 6.27820403e-01, 3.91004358e-01, 3.52704321e+00, 0.00000000e+00, 0.7093503112, 7.9219825357, -3.0880833436, 3.5058220928, 3.0000000000, 2.6451688428, 0.2203871131
         210, -3.66281237e-03, 1.06575037e-02, 0.00000000e+00, 0.00000000e+00, 0.00000000e+00, -2.60546912e-03, 1.06575037e-02, -3.66281237e-03, 0.00000000e+00, -3.43683893e-01, 0.00000000e+00, 0.00000000e+00, -3.39651240e+04, 3.48298322e+04, 0.00000000e+00, -2.29656139e+00, 4.92279334e-01, 2.37925415e-01, 3.38113885e+00, 0.00000000e+00, 0.6601844344, 7.8243138529, -3.3077803553, 3.4767207537, 3.0000000000, 3.1073692388, 0.2314545870
         220, -3.54723033e-03, 1.01778219e-02, 0.00000000e+00, 0.00000000e+00, 0.00000000e+00, -2.40043191e-03, 1.01778219e-02, -3.54723033e-03, 0.00000000e+00, -3.48525485e-01, 0.00000000e+00, 0.00000000e+00, -2.79444611e+04, 3.02199335e+04, 0.00000000e+00, -2.44511067e+00, 3.58357195e-01, 7.66804418e-02, 3.23184323e+00, 0.00000000e+00, 0.5752283640, 7.7067490652, -3.6022905019, 4.8816512332, 4.0000000000, 3.6889314087, 0.2424493233
         230, -3.74493473e-03, 9.68768261e-03, 0.00000000e+00, 0.00000000e+00, 0.00000000e+00, -2.60945670e-03, 9.68768261e-03, -3.74493473e-03, 0.00000000e+00, -3.86566621e-01, 0.00000000e+00, 0.00000000e+00, -2.06515278e+04, 2.52904577e+04, 0.00000000e+00, -2.59481451e+00, 2.30079280e-01, -8.60432628e-02, 3.08299606e+00, 0.00000000e+00, 0.5277850677, 7.5905564961, -3.7872030447, 3.4895436514, 4.0000000000, 4.3781645231, 0.2536541104
         240, -4.18397098e-03, 9.18093412e-03, 0.00000000e+00, 0.00000000e+00, 0.00000000e+00, -3.21284431e-03, 9.18093412e-03, -4.18397098e-03, 0.00000000e+00, -4.55723887e-01, 0.00000000e+00, 0.00000000e+00, -1.31781774e+04, 1.98278308e+04, 0.00000000e+00, -2.75471121e+00, 1.09121616e-01, -2.70858679e-01, 2.92300288e+00, 0.00000000e+00, 0.4099863817, 7.4766456976, -3.9380701474, 3.6688552668, 4.0000000000, 5.2502819829, 0.2651048064
         250, -4.35058602e-03, 8.62590193e-03, 0.00000000e+00, 0.00000000e+00, 0.00000000e+00, -3.36764237e-03, 8.62590193e-03, -4.35058602e-03, 0.00000000e+00, -5.04363028e-01, 0.00000000e+00, 0.00000000e+00, -7.40220585e+03, 1.59379412e+04, 0.00000000e+00, -2.94594933e+00, 2.50974615e-03, -5.35514336e-01, 2.74138992e+00, 0.00000000e+00, 0.1231175214, 7.3606072917, -4.0155352085, 5.0333595905, 5.0000000000, 6.5320609366, 0.2766612609
         260, -4.39847868e-03, 8.03586058e-03, 0.00000000e+00, 0.00000000e+00, 0.00000000e+00, -3.15587860e-03, 8.03586058e-03, -4.39847868e-03, 0.00000000e+00, -5.47356271e-01, 0.00000000e+00, 0.00000000e+00, -3.00482803e+03, 1.32179358e+04, 0.00000000e+00, -3.10798287e+00, -7.90712091e-02, -8.09357508e-01, 2.60387844e+00, 0.00000000e+00, -1.1161612950, 7.2380602160, -4.0278196201, 4.6786752060, 5.0000000000, 7.9330995516, 0.2886462371
         270, -4.42021870e-03, 7.45789407e-03, 0.00000000e+00, 0.00000000e+00, 0.00000000e+00, -3.13970929e-03, 7.45789407e-03, -4.42021870e-03, 0.00000000e+00, -5.92689929e-01, 0.00000000e+00, 0.00000000e+00, 4.66848828e+02, 1.10104422e+04, 0.00000000e+00, -3.20163012e+00, -1.35483137e-01, -9.80620778e-01, 2.52650713e+00, 0.00000000e+00, -3.4840674337, 7.1169464340, -4.0343231944, 3.3712783819, 6.0000000000, 8.8852611922, 0.3011597673
         280, -4.18329393e-03, 6.91901557e-03, 0.00000000e+00, 0.00000000e+00, 0.00000000e+00, -3.06905417e-03, 6.91901557e-03, -4.18329393e-03, 0.00000000e+00, -6.04608255e-01, 0.00000000e+00, 0.00000000e+00, 2.21066020e+03, 9.31671995e+03, 0.00000000e+00, -3.27188854e+00, -1.73266730e-01, -1.18538752e+00, 2.47257563e+00, 0.00000000e+00, -3.7417831895, 7.0046664067, -4.0440724492, 3.2859984071, 6.0000000000, 9.6250989049, 0.3134620031
         290, -3.79844772e-03, 6.42528252e-03, 0.00000000e+00, 0.00000000e+00, 0.00000000e+00, -2.89652097e-03, 6.42528252e-03, -3.79844772e-03, 0.00000000e+00, -5.91172093e-01, 0.00000000e+00, 0.00000000e+00, 3.32827959e+03, 8.04160510e+03, 0.00000000e+00, -3.32297539e+00, -2.11506160e-01, -1.54904555e+00, 2.42976942e+00, 0.00000000e+00, -4.0095019046, 6.8994068965, -4.0515236157, 3.2047968230, 5.0000000000, 10.2881254900, 0.3259570479
         300, -3.35271783e-03, 5.98622994e-03, 0.00000000e+00, 0.00000000e+00, 0.00000000e+00, -2.61854404e-03, 5.98622994e-03, -3.35271783e-03, 0.00000000e+00, -5.60071676e-01, 0.00000000e+00, 0.00000000e+00, 4.18186813e+03, 7.12726560e+03, 0.00000000e+00, -3.34339244e+00, -2.39507035e-01, -1.46193792e+00, 2.40864623e+00, 0.00000000e+00, -4.2949316104, 6.8030482013, -4.0601584279, 3.1219083381, 6.0000000000, 10.5102323231, 0.3379886905
         310, -2.95430754e-03, 5.59910322e-03, 0.00000000e+00, 0.00000000e+00, 0.00000000e+00, -2.23361255e-03, 5.59910322e-03, -2.95430754e-03, 0.00000000e+00, -5.27639413e-01, 0.00000000e+00, 0.00000000e+00, 5.14876797e+03, 6.56767169e+03, 0.00000000e+00, -3.38567846e+00, -2.81053732e-01, -1.41354506e+00, 2.36272859e+00, 0.00000000e+00, -4.5935520573, 6.7142777061, -4.0838065745, 3.0576903782, 6.0000000000, 10.9799025861, 0.3503116369
         320, -2.72935525e-03, 5.25083540e-03, 0.00000000e+00, 0.00000000e+00, 0.00000000e+00, -2.01837965e-03, 5.25083540e-03, -2.72935525e-03, 0.00000000e+00, -5.19794479e-01, 0.00000000e+00, 0.00000000e+00, 6.68062405e+03, 6.67128966e+03, 0.00000000e+00, -3.43489501e+00, -3.27963617e-01, -1.45557311e+00, 2.30986829e+00, 0.00000000e+00, -4.1803675694, 6.6300499942, -4.0850017153, 3.0213607653, 6.0000000000, 11.6247445403, 0.3627796531
         330, -2.56535422e-03, 4.93197015e-03, 0.00000000e+00, 0.00000000e+00, 0.00000000e+00, -1.92287911e-03, 4.93197015e-03, -2.56535422e-03, 0.00000000e+00, -5.20147961e-01, 0.00000000e+00, 0.00000000e+00, 8.03157254e+03, 7.27457201e+03, 0.00000000e+00, -3.48258495e+00, -3.65924600e-01, -1.67167063e+00, 2.26475717e+00, 0.00000000e+00, -4.5207943589, 6.5498779296, -4.0896986788, 2.9641816430, 6.0000000000, 12.3216743208, 0.3749909918
         340, -2.38035253e-03, 4.64060822e-03, 0.00000000e+00, 0.00000000e+00, 0.00000000e+00, -1.80743818e-03, 4.64060822e-03, -2.38035253e-03, 0.00000000e+00, -5.12939774e-01, 0.00000000e+00, 0.00000000e+00, 8.84087041e+03, 7.93515500e+03, 0.00000000e+00, -3.51204995e+00, -3.94193828e-01, -1.83883372e+00, 2.23749949e+00, 0.00000000e+00, -4.1170621861, 6.4734866622, -4.1040325772, 2.9339566277, 6.0000000000, 12.7690592207, 0.3865825494
         350, -2.17930430e-03, 4.37540777e-03, 0.00000000e+00, 0.00000000e+00, 0.00000000e+00, -1.64253040e-03, 4.37540777e-03, -2.17930430e-03, 0.00000000e+00, -4.98080273e-01, 0.00000000e+00, 0.00000000e+00, 9.32696365e+03, 8.45589682e+03, 0.00000000e+00, -3.54136694e+00, -4.25421368e-01, -1.82024120e+00, 2.20714283e+00, 0.00000000e+00, -4.4850021612, 6.4005711530, -4.1130030745, 2.8688035083, 6.0000000000, 13.2222370988, 0.3977180839
         360, -2.02180341e-03, 4.13349325e-03, 0.00000000e+00, 0.00000000e+00, 0.00000000e+00, -1.51341728e-03, 4.13349325e-03, -2.02180341e-03, 0.00000000e+00, -4.89127063e-01, 0.00000000e+00, 0.00000000e+00, 9.86155437e+03, 8.95871346e+03, 0.00000000e+00, -3.57470417e+00, -4.57939142e-01, -1.87275070e+00, 2.17392368e+00, 0.00000000e+00, -4.8031197683, 6.3305570687, -4.1199481504, 3.5772688756, 6.0000000000, 13.7492538695, 0.4086035808
         370, -1.88550734e-03, 3.91103758e-03, 0.00000000e+00, 0.00000000e+00, 0.00000000e+00, -1.41162267e-03, 3.91103758e-03, -1.88550734e-03, 0.00000000e+00, -4.82099010e-01, 0.00000000e+00, 0.00000000e+00, 1.02986293e+04, 9.37556209e+03, 0.00000000e+00, -3.60602619e+00, -4.88006546e-01, -1.92888851e+00, 2.14320604e+00, 0.00000000e+00, -4.5019384920, 6.2629264380, -4.1307303350, 2.7854985357, 6.0000000000, 14.2413488036, 0.4195089817
         380, -1.76155216e-03, 3.70665438e-03, 0.00000000e+00, 0.00000000e+00, 0.00000000e+00, -1.31630369e-03, 3.70665438e-03, -1.76155216e-03, 0.00000000e+00, -4.75240469e-01, 0.00000000e+00, 0.00000000e+00, 1.06113475e+04, 9.75404315e+03, 0.00000000e+00, -3.63489556e+00, -5.16094940e-01, -2.00997612e+00, 2.11433678e+00, 0.00000000e+00, -4.5631300024, 6.1976613396, -4.1482917767, 3.3885064556, 6.0000000000, 14.7397386382, 0.4306488554
         390, -1.64924194e-03, 3.51845439e-03, 0.00000000e+00, 0.00000000e+00, 0.00000000e+00, -1.22809715e-03, 3.51845439e-03, -1.64924194e-03, 0.00000000e+00, -4.68740462e-01, 0.00000000e+00, 0.00000000e+00, 1.07935287e+04, 1.01263664e+04, 0.00000000e+00, -3.66521845e+00, -5.44374302e-01, -2.05707453e+00, 2.08426692e+00, 0.00000000e+00, -4.5695007696, 6.1344052908, -4.1728607273, 2.7113707112, 6.0000000000, 15.2057310079, 0.4415741324
         400, -1.57238332e-03, 3.34493232e-03, 0.00000000e+00, 0.00000000e+00, 0.00000000e+00, -1.16771577e-03, 3.34493232e-03, -1.57238332e-03, 0.00000000e+00, -4.70079262e-01, 0.00000000e+00, 0.00000000e+00, 1.09495067e+04, 1.06622609e+04, 0.00000000e+00, -3.69561082e+00, -5.71589941e-01, -2.13960488e+00, 2.05438232e+00, 0.00000000e+00, -4.2305513522, 6.0730409409, -4.2023659393, 2.6916908213, 6.0000000000, 15.7123268138, 0.4525525928
         410, -1.48560958e-03, 3.18427734e-03, 0.00000000e+00, 0.00000000e+00, 0.00000000e+00, -1.09960194e-03, 3.18427734e-03, -1.48560958e-03, 0.00000000e+00, -4.66545285e-01, 0.00000000e+00, 0.00000000e+00, 1.10750088e+04, 1.14230321e+04, 0.00000000e+00, -3.72392965e+00, -5.97787508e-01, -2.19265103e+00, 2.02632638e+00, 0.00000000e+00, -4.6855029910, 6.0133090407, -4.2389512913, 2.6341399128, 6.0000000000, 16.1796986171, 0.4637846907
         420, -1.42051768e-03, 3.03578865e-03, 0.00000000e+00, 0.00000000e+00, 0.00000000e+00, -1.04814487e-03, 3.03578865e-03, -1.42051768e-03, 0.00000000e+00, -4.67923774e-01, 0.00000000e+00, 0.00000000e+00, 1.10962131e+04, 1.23321406e+04, 0.00000000e+00, -3.74801177e+00, -6.22144498e-01, -2.19062192e+00, 2.00233003e+00, 0.00000000e+00, -4.3529901444, 5.9551429950, -4.2830274677, 2.6031305583, 6.0000000000, 16.5700030731, 0.4747560302
         430, -1.35855938e-03, 2.89829598e-03, 0.00000000e+00, 0.00000000e+00, 0.00000000e+00, -9.98982591e-04, 2.89829598e-03, -1.35855938e-03, 0.00000000e+00, -4.68744181e-01, 0.00000000e+00, 0.00000000e+00, 1.10958939e+04, 1.32971159e+04, 0.00000000e+00, -3.77418027e+00, -6.46910703e-01, -2.15398382e+00, 1.97618807e+00, 0.00000000e+00, -4.8229142635, 5.8985326923, -4.3344986655, 2.5505733347, 6.0000000000, 16.8650170833, 0.4859381994
         440, -1.30561206e-03, 2.77073314e-03, 0.00000000e+00, 0.00000000e+00, 0.00000000e+00, -9.56773931e-04, 2.77073314e-03, -1.30561206e-03, 0.00000000e+00, -4.71215378e-01, 0.00000000e+00, 0.00000000e+00, 1.10677203e+04, 1.42191316e+04, 0.00000000e+00, -3.78839086e+00, -6.67863668e-01, -2.06145017e+00, 1.96222941e+00, 0.00000000e+00, -4.5495667873, 5.8433043297, -4.3893148063, 2.5237784892, 6.0000000000, 17.1380500645, 0.4972163081
         450, -1.25380477e-03, 2.65174120e-03, 0.00000000e+00, 0.00000000e+00, 0.00000000e+00, -9.15275053e-04, 2.65174120e-03, -1.25380477e-03, 0.00000000e+00, -4.72823203e-01, 0.00000000e+00, 0.00000000e+00, 1.09870811e+04, 1.50460609e+04, 0.00000000e+00, -3.80675681e+00, -6.89596809e-01, -2.17819714e+00, 1.94325337e+00, 0.00000000e+00, -4.2506497192, 5.7892698165, -4.4462001782, 2.6212189741, 6.0000000000, 17.4695807732, 0.5083886902
         460, -1.20577393e-03, 2.54128377e-03, 0.00000000e+00, 0.00000000e+00, 0.00000000e+00, -8.76776719e-04, 2.54128377e-03, -1.20577393e-03, 0.00000000e+00, -4.74474336e-01, 0.00000000e+00, 0.00000000e+00, 1.08958586e+04, 1.57599635e+04, 0.00000000e+00, -3.83925639e+00, -7.13439215e-01, -2.36469912e+00, 1.91135473e+00, 0.00000000e+00, -4.7327574571, 5.7366792550, -4.5020752299, 2.4566546279, 6.0000000000, 18.0369830554, 0.5197108150
         470, -1.16609941e-03, 2.43827605e-03, 0.00000000e+00, 0.00000000e+00, 0.00000000e+00, -8.44658361e-04, 2.43827605e-03, -1.16609941e-03, 0.00000000e+00, -4.78247494e-01, 0.00000000e+00, 0.00000000e+00, 1.07893130e+04, 1.63646305e+04, 0.00000000e+00, -3.86268656e+00, -7.34471940e-01, -2.37234354e+00, 1.88825964e+00, 0.00000000e+00, -4.4663746064, 5.6851864948, -4.5585105448, 2.5016166814, 6.0000000000, 18.4324678724, 0.5311934948
         480, -1.12404739e-03, 2.34190730e-03, 0.00000000e+00, 0.00000000e+00, 0.00000000e+00, -8.10618804e-04, 2.34190730e-03, -1.12404739e-03, 0.00000000e+00, -4.79970914e-01, 0.00000000e+00, 0.00000000e+00, 1.06755884e+04, 1.68647907e+04, 0.00000000e+00, -3.88088241e+00, -7.54864908e-01, -2.24828501e+00, 1.86987194e+00, 0.00000000e+00, -4.2213743750, 5.6346312986, -4.6092654049, 2.3813935752, 6.0000000000, 18.5694721538, 0.5426032941
         490, -1.07878635e-03, 2.25136635e-03, 0.00000000e+00, 0.00000000e+00, 0.00000000e+00, -7.74138820e-04, 2.25136635e-03, -1.07878635e-03, 0.00000000e+00, -4.79169616e-01, 0.00000000e+00, 0.00000000e+00, 1.05474610e+04, 1.72689681e+04, 0.00000000e+00, -3.89405277e+00, -7.73302827e-01, -2.26977402e+00, 1.85632887e+00, 0.00000000e+00, -4.6151838081, 5.5849383427, -4.6625165945, 2.3551523291, 6.0000000000, 18.8932014161, 0.5540248195
         500, -1.03286516e-03, 2.16665722e-03, 0.00000000e+00, 0.00000000e+00, 0.00000000e+00, -7.37006774e-04, 2.16665722e-03, -1.03286516e-03, 0.00000000e+00, -4.76709077e-01, 0.00000000e+00, 0.00000000e+00, 1.04045704e+04, 1.75862584e+04, 0.00000000e+00, -3.92405335e+00, -7.94248251e-01, -2.46976219e+00, 1.82719424e+00, 0.00000000e+00, -4.4741539175, 5.5363944800, -4.7154682175, 2.3246990144, 6.0000000000, 19.4829483980, 0.5655289253
         510, -9.87620074e-04, 2.08740133e-03, 0.00000000e+00, 0.00000000e+00, 0.00000000e+00, -7.00602727e-04, 2.08740133e-03, -9.87620074e-04, 0.00000000e+00, -4.73133777e-01, 0.00000000e+00, 0.00000000e+00, 1.02492166e+04, 1.78278919e+04, 0.00000000e+00, -3.94330519e+00, -8.13416616e-01, -2.36503458e+00, 1.80786959e+00, 0.00000000e+00, -4.2044282675, 5.4887858533, -4.7594859430, 2.3255932027, 6.0000000000, 19.6291936846, 0.5770445466
         520, -9.48801730e-04, 2.01252268e-03, 0.00000000e+00, 0.00000000e+00, 0.00000000e+00, -6.69067616e-04, 2.01252268e-03, -9.48801730e-04, 0.00000000e+00, -4.71448962e-01, 0.00000000e+00, 0.00000000e+00, 1.00901698e+04, 1.80045632e+04, 0.00000000e+00, -3.95132721e+00, -8.29622959e-01, -2.29401648e+00, 1.79928092e+00, 0.00000000e+00, -4.0492199183, 5.4417750096, -4.8065906335, 2.3012377575, 6.0000000000, 19.7805875809, 0.5885579427
         530, -9.12313129e-04, 1.94216455e-03, 0.00000000e+00, 0.00000000e+00, 0.00000000e+00, -6.39110481e-04, 1.94216455e-03, -9.12313129e-04, 0.00000000e+00, -4.69740388e-01, 0.00000000e+00, 0.00000000e+00, 9.92437108e+03, 1.81232798e+04, 0.00000000e+00, -3.97897185e+00, -8.48790039e-01, -2.52705434e+00, 1.77254233e+00, 0.00000000e+00, -4.2484744101, 5.3957997737, -4.8524494769, 2.2432328340, 6.0000000000, 20.3998729371, 0.6003055890
         540, -8.79638533e-04, 1.87582213e-03, 0.00000000e+00, 0.00000000e+00, 0.00000000e+00, -6.12189885e-04, 1.87582213e-03, -8.79638533e-04, 0.00000000e+00, -4.68934938e-01, 0.00000000e+00, 0.00000000e+00, 9.76184225e+03, 1.81917285e+04, 0.00000000e+00, -3.99514388e+00, -8.66412324e-01, -2.40110798e+00, 1.75610441e+00, 0.00000000e+00, -4.1329781187, 5.3504554569, -4.9028480375, 2.2295029616, 6.0000000000, 20.5666720846, 0.6117351492
         550, -8.48945525e-04, 1.81268032e-03, 0.00000000e+00, 0.00000000e+00, 0.00000000e+00, -5.86722986e-04, 1.81268032e-03, -8.48945525e-04, 0.00000000e+00, -4.68337145e-01, 0.00000000e+00, 0.00000000e+00, 9.59335004e+03, 1.82150205e+04, 0.00000000e+00, -4.00600845e+00, -8.82092107e-01, -2.49681238e+00, 1.74500341e+00, 0.00000000e+00, -3.9604910646, 5.3054982970, -4.9428301565, 2.2028804987, 6.0000000000, 20.8786343557, 0.6231928905
         560, -8.21856369e-04, 1.75356010e-03, 0.00000000e+00, 0.00000000e+00, 0.00000000e+00, -5.63897270e-04, 1.75356010e-03, -8.21856369e-04, 0.00000000e+00, -4.68678757e-01, 0.00000000e+00, 0.00000000e+00, 9.42983980e+03, 1.81989075e+04, 0.00000000e+00, -4.02966839e+00, -8.99393731e-01, -2.52751298e+00, 1.72229568e+00, 0.00000000e+00, -3.7992068446, 5.2616881697, -4.9904387639, 2.1955494281, 6.0000000000, 21.2685500301, 0.6348808726
         570, -7.95381364e-04, 1.69722394e-03, 0.00000000e+00, 0.00000000e+00, 0.00000000e+00, -5.41569634e-04, 1.69722394e-03, -7.95381364e-04, 0.00000000e+00, -4.68636663e-01, 0.00000000e+00, 0.00000000e+00, 9.25862309e+03, 1.81487120e+04, 0.00000000e+00, -4.03974331e+00, -9.15141742e-01, -2.45772168e+00, 1.71139438e+00, 0.00000000e+00, -3.6576292506, 5.2181823396, -5.0171580037, 2.1405158391, 6.0000000000, 21.4044994349, 0.6462375124
         580, -7.69645543e-04, 1.64368578e-03, 0.00000000e+00, 0.00000000e+00, 0.00000000e+00, -5.19625596e-04, 1.64368578e-03, -7.69645543e-04, 0.00000000e+00, -4.68243719e-01, 0.00000000e+00, 0.00000000e+00, 9.09386841e+03, 1.80715960e+04, 0.00000000e+00, -4.06513814e+00, -9.32476157e-01, -2.78093852e+00, 1.68673612e+00, 0.00000000e+00, -3.4919695697, 5.1752925459, -5.0883011362, 2.3037636538, 6.0000000000, 22.0748348998, 0.6578224818
         590, -7.48311663e-04, 1.59318173e-03, 0.00000000e+00, 0.00000000e+00, 0.00000000e+00, -5.01334325e-04, 1.59318173e-03, -7.48311663e-04, 0.00000000e+00, -4.69696362e-01, 0.00000000e+00, 0.00000000e+00, 8.93063103e+03, 1.79762855e+04, 0.00000000e+00, -4.07351856e+00, -9.46333413e-01, -2.43928043e+00, 1.67820419e+00, 0.00000000e+00, -3.3830780456, 5.1330910193, -5.1095745916, 2.1377217092, 6.0000000000, 22.0861226690, 0.6697079539
         600, -7.27253308e-04, 1.54487119e-03, 0.00000000e+00, 0.00000000e+00, 0.00000000e+00, -4.82808916e-04, 1.54487119e-03, -7.27253308e-04, 0.00000000e+00, -4.70753365e-01, 0.00000000e+00, 0.00000000e+00, 8.76020979e+03, 1.78687098e+04, 0.00000000e+00, -4.09380633e+00, -9.62607539e-01, -2.74705481e+00, 1.65824310e+00, 0.00000000e+00, -3.2179742013, 5.0912885630, -5.0204635435, 2.0825974637, 6.0000000000, 22.6768913467, 0.6812151432
         610, -7.08942959e-04, 1.49918403e-03, 0.00000000e+00, 0.00000000e+00, 0.00000000e+00, -4.66662905e-04, 1.49918403e-03, -7.08942959e-04, 0.00000000e+00, -4.72885878e-01, 0.00000000e+00, 0.00000000e+00, 8.60262196e+03, 1.77573335e+04, 0.00000000e+00, -4.10990226e+00, -9.77928906e-01, -2.55489098e+00, 1.64215211e+00, 0.00000000e+00, -3.0273563214, 5.0501641228, -4.9523843248, 2.0825525015, 6.0000000000, 22.8476903099, 0.6929521720
         620, -6.90419410e-04, 1.45520855e-03, 0.00000000e+00, 0.00000000e+00, 0.00000000e+00, -4.50180006e-04, 1.45520855e-03, -6.90419410e-04, 0.00000000e+00, -4.74447053e-01, 0.00000000e+00, 0.00000000e+00, 8.43727403e+03, 1.76464851e+04, 0.00000000e+00, -4.11900371e+00, -9.91375329e-01, -2.69901890e+00, 1.63285523e+00, 0.00000000e+00, -2.8143493160, 5.0091283977, -4.7533774968, 2.1130705209, 6.0000000000, 23.1654017123, 0.7046334505
         630, -6.74688741e-04, 1.41394071e-03, 0.00000000e+00, 0.00000000e+00, 0.00000000e+00, -4.35827380e-04, 1.41394071e-03, -6.74688741e-04, 0.00000000e+00, -4.77169047e-01, 0.00000000e+00, 0.00000000e+00, 8.28234204e+03, 1.75449236e+04, 0.00000000e+00, -4.13424986e+00, -1.00537571e+00, -2.66720960e+00, 1.61803808e+00, 0.00000000e+00, -2.5868004886, 4.9691880826, -4.5221337017, 2.1788171697, 6.0000000000, 23.3317779245, 0.7164431453
         640, -6.57955088e-04, 1.37412138e-03, 0.00000000e+00, 0.00000000e+00, 0.00000000e+00, -4.20568277e-04, 1.37412138e-03, -6.57955088e-04, 0.00000000e+00, -4.78818755e-01, 0.00000000e+00, 0.00000000e+00, 8.11595215e+03, 1.74541202e+04, 0.00000000e+00, -4.14770795e+00, -1.01972650e+00, -2.65825882e+00, 1.60441136e+00, 0.00000000e+00, -2.3422633381, 4.9293135145, -4.2429691304, 2.3243671007, 6.0000000000, 23.7448919126, 0.7284751296
         650, -6.44072752e-04, 1.33644828e-03, 0.00000000e+00, 0.00000000e+00, 0.00000000e+00, -4.07646347e-04, 1.33644828e-03, -6.44072752e-04, 0.00000000e+00, -4.81928679e-01, 0.00000000e+00, 0.00000000e+00, 7.96359463e+03, 1.73793276e+04, 0.00000000e+00, -4.16915814e+00, -1.03489822e+00, -2.74439348e+00, 1.58337173e+00, 0.00000000e+00, -2.0846756952, 4.8902398996, -3.9364304531, 2.5161886490, 6.0000000000, 24.0957252726, 0.7403860450
         660, -6.30035180e-04, 1.30005667e-03, 0.00000000e+00, 0.00000000e+00, 0.00000000e+00, -3.94508980e-04, 1.30005667e-03, -6.30035180e-04, 0.00000000e+00, -4.84621322e-01, 0.00000000e+00, 0.00000000e+00, 7.81088762e+03, 1.73210590e+04, 0.00000000e+00, -4.17507576e+00, -1.04704169e+00, -2.74523754e+00, 1.57708768e+00, 0.00000000e+00, -1.8103573505, 4.8511357785, -3.5912375786, 2.4590315228, 6.0000000000, 24.2373009057, 0.7526323477