TITLE = "SU2 Simulation"
VARIABLES = "Iteration","CL","CD","CSF","CMx","CMy","CMz","CFx","CFy","CFz","CL/CD","AoA","Custom_ObjFunc","HeatFlux_Total","HeatFlux_Maximum","Temperature_Total","Res_Flow[0]","Res_Flow[1]","Res_Flow[2]","Res_Flow[3]","Res_Flow[4]"," Res_Turb[0]"," Res_Turb[1]"," Res_Turb[2]"," Res_Turb[3]","Linear_Solver_Iterations","CFL_Number","Time(min)"
ZONE T= "Convergence history"
           0, -4.00000039e-01, 2.01249574e-01, 0.00000000e+00, 0.00000000e+00, 0.00000000e+00, -3.00000136e-01, 2.01249574e-01, -4.00000039e-01, 0.00000000e+00, -1.98758204e+00, 0.00000000e+00, 0.00000000e+00, -8.74672963e+04, 7.87986306e+04, 0.00000000e+00, -2.26369284e+00, 6.52141827e-02, 1.21914533e-01, 3.20528024e+00, 0.00000000e+00, 2.6670671990, 6.8511105219, 1.9409554169, 8.2660433588, 8.0000000000, 10.0000000000, 0.0025453726
          10, -2.53470283e-02, 8.40405518e-02, 0.00000000e+00, 0.00000000e+00, 0.00000000e+00, -4.30283953e-02, 8.40405518e-02, -2.53470283e-02, 0.00000000e+00, -3.01604735e-01, 0.00000000e+00, 0.00000000e+00, -6.41322687e+03, 5.77681825e+03, 0.00000000e+00, -3.11581911e+00, -4.70955856e-01, -7.29831754e-01, 2.36610698e+00, 0.00000000e+00, 0.4860269758, 6.9632410723, 0.1110569315, 6.2521161705, 10.0000000000, 25.1835753809, 0.0222165187
          20, -3.44240707e-01, 5.03820719e-02, 0.00000000e+00, 0.00000000e+00, 0.00000000e+00, -2.50238670e-01, 5.03820719e-02, -3.44240707e-01, 0.00000000e+00, -6.83260322e+00, 0.00000000e+00, 0.00000000e+00, -2.56687997e+03, 2.31380132e+03, 0.00000000e+00, -3.45158202e+00, -7.83900888e-01, -7.54804198e-01, 2.03078996e+00, 0.00000000e+00, -0.2581436023, 5.8940035922, -0.6071928341, 5.3915372704, 10.0000000000, 38.1304558474, 0.0381712437
          30, -1.63271697e-01, 3.71740793e-02, 0.00000000e+00, 0.00000000e+00, 0.00000000e+00, -7.90894030e-02, 3.71740793e-02, -1.63271697e-01, 0.00000000e+00, -4.39208450e+00, 0.00000000e+00, 0.00000000e+00, -1.41530486e+03, 1.28859037e+03, 0.00000000e+00, -3.53261052e+00, -8.64588113e-01, -1.19087125e+00, 1.95374799e+00, 0.00000000e+00, -0.7310297289, 5.2018900818, -0.9491998447, 4.6291142419, 10.0000000000, 39.9448505387, 0.0536728740
          40, -1.34356039e-01, 2.99299611e-02, 0.00000000e+00, 0.00000000e+00, 0.00000000e+00, -1.41543381e-01, 2.99299611e-02, -1.34356039e-01, 0.00000000e+00, -4.48901481e+00, 0.00000000e+00, 0.00000000e+00, -9.22737962e+02, 8.28018234e+02, 0.00000000e+00, -3.66887789e+00, -1.06046312e+00, -1.06886940e+00, 1.79020198e+00, 0.00000000e+00, -1.0166661338, 4.7362957473, -1.2724899649, 4.2884388051, 10.0000000000, 46.6694529388, 0.0695200761
          50, -2.19297405e-01, 2.48323190e-02, 0.00000000e+00, 0.00000000e+00, 0.00000000e+00, -1.45852882e-01, 2.48323190e-02, -2.19297405e-01, 0.00000000e+00, -8.83112870e+00, 0.00000000e+00, 0.00000000e+00, -6.41746911e+02, 5.81136920e+02, 0.00000000e+00, -3.89360319e+00, -1.23589812e+00, -1.27314991e+00, 1.58358225e+00, 0.00000000e+00, -1.2451787213, 4.3450674945, -1.5301165345, 3.7919596373, 10.0000000000, 60.6057785495, 0.0856413205
          60, -1.69884907e-01, 2.10207879e-02, 0.00000000e+00, 0.00000000e+00, 0.00000000e+00, -1.34322712e-01, 2.10207879e-02, -1.69884907e-01, 0.00000000e+00, -8.08175733e+00, 0.00000000e+00, 0.00000000e+00, -4.54797431e+02, 4.33146730e+02, 0.00000000e+00, -4.09234670e+00, -1.33041807e+00, -1.57465250e+00, 1.37028098e+00, 0.00000000e+00, -1.4420522251, 3.9980638611, -1.7415087756, 3.8589566460, 10.0000000000, 70.4221792569, 0.1048824430
          70, -1.93192860e-01, 1.83275501e-02, 0.00000000e+00, 0.00000000e+00, 0.00000000e+00, -1.42548455e-01, 1.83275501e-02, -1.93192860e-01, 0.00000000e+00, -1.05411175e+01, 0.00000000e+00, 0.00000000e+00, -3.45342778e+02, 3.14625160e+02, 0.00000000e+00, -4.24209994e+00, -1.42665039e+00, -1.69987797e+00, 1.23711712e+00, 0.00000000e+00, -1.5862264937, 3.7039668208, -1.9147638485, 3.2641016048, 10.0000000000, 67.2735956007, 0.1204275370
          80, -1.83536800e-01, 1.63292732e-02, 0.00000000e+00, 0.00000000e+00, 0.00000000e+00, -1.38166211e-01, 1.63292732e-02, -1.83536800e-01, 0.00000000e+00, -1.12397409e+01, 0.00000000e+00, 0.00000000e+00, -2.72802771e+02, 2.79748870e+02, 0.00000000e+00, -4.38891131e+00, -1.50350696e+00, -1.90489816e+00, 1.09115124e+00, 0.00000000e+00, -1.7145933945, 3.4589845019, -2.0547256211, 3.0718899414, 10.0000000000, 68.0625322458, 0.1362133622
          90, -1.86979789e-01, 1.46642486e-02, 0.00000000e+00, 0.00000000e+00, 0.00000000e+00, -1.40254122e-01, 1.46642486e-02, -1.86979789e-01, 0.00000000e+00, -1.27507242e+01, 0.00000000e+00, 0.00000000e+00, -2.19989350e+02, 2.26687881e+02, 0.00000000e+00, -4.57097233e+00, -1.57127823e+00, -2.11947245e+00, 9.11098061e-01, 0.00000000e+00, -1.8310481270, 3.2330245227, -2.1514498753, 2.9561224102, 10.0000000000, 81.1095829371, 0.1517106374
         100, -1.87357025e-01, 1.30845539e-02, 0.00000000e+00, 0.00000000e+00, 0.00000000e+00, -1.40379422e-01, 1.30845539e-02, -1.87357025e-01, 0.00000000e+00, -1.43189463e+01, 0.00000000e+00, 0.00000000e+00, -1.74613614e+02, 2.00959841e+02, 0.00000000e+00, -4.81565159e+00, -1.63967353e+00, -2.33943650e+00, 6.67119545e-01, 0.00000000e+00, -1.9542334847, 2.9949847969, -2.2358424363, 2.8308111484, 10.0000000000, 106.7379620954, 0.1676028609
         110, -1.87287065e-01, 1.14867560e-02, 0.00000000e+00, 0.00000000e+00, 0.00000000e+00, -1.40380993e-01, 1.14867560e-02, -1.87287065e-01, 0.00000000e+00, -1.63046089e+01, 0.00000000e+00, 0.00000000e+00, -1.33762451e+02, 1.85582412e+02, 0.00000000e+00, -5.04927040e+00, -1.71553981e+00, -2.55102654e+00, 4.16596672e-01, 0.00000000e+00, -2.0840496156, 2.7240105305, -2.3139323832, 2.6862354407, 10.0000000000, 147.6201812364, 0.1831906041
         120, -1.87189052e-01, 9.94730342e-03, 0.00000000e+00, 0.00000000e+00, 0.00000000e+00, -1.40404588e-01, 9.94730342e-03, -1.87189052e-01, 0.00000000e+00, -1.88180700e+01, 0.00000000e+00, 0.00000000e+00, -9.92967341e+01, 1.74781332e+02, 0.00000000e+00, -5.30795000e+00, -1.79193453e+00, -2.83461020e+00, 1.42999614e-01, 0.00000000e+00, -2.2232495306, 2.4259710484, -2.3892250498, 3.2122494700, 10.0000000000, 194.1118032918, 0.2015018543
         130, -1.87272248e-01, 8.59031642e-03, 0.00000000e+00, 0.00000000e+00, 0.00000000e+00, -1.40490363e-01, 8.59031642e-03, -1.87272248e-01, 0.00000000e+00, -2.18003899e+01, 0.00000000e+00, 0.00000000e+00, -7.31508828e+01, 1.69332932e+02, 0.00000000e+00, -5.42012278e+00, -1.86904076e+00, -2.97675627e+00, 3.54607266e-02, 0.00000000e+00, -2.3358268473, 2.1299349660, -2.4746482867, 2.7650882838, 10.0000000000, 221.9213036168, 0.2170919220
         140, -1.87294618e-01, 7.48424006e-03, 0.00000000e+00, 0.00000000e+00, 0.00000000e+00, -1.40526149e-01, 7.48424006e-03, -1.87294618e-01, 0.00000000e+00, -2.50252018e+01, 0.00000000e+00, 0.00000000e+00, -5.49957054e+01, 1.65062939e+02, 0.00000000e+00, -5.52268778e+00, -1.94036801e+00, -3.11289201e+00, -6.45117981e-02, 0.00000000e+00, -2.4284759562, 1.8744030816, -2.5690727707, 2.2162468228, 10.0000000000, 249.7937201043, 0.2328542988
         150, -1.87364179e-01, 6.57244936e-03, 0.00000000e+00, 0.00000000e+00, 0.00000000e+00, -1.40586461e-01, 6.57244936e-03, -1.87364179e-01, 0.00000000e+00, -2.85075120e+01, 0.00000000e+00, 0.00000000e+00, -4.20685575e+01, 1.60904544e+02, 0.00000000e+00, -5.60996257e+00, -2.00674650e+00, -3.24409820e+00, -1.49213416e-01, 0.00000000e+00, -2.5291007973, 1.6631966942, -2.6748828291, 2.4069149953, 10.0000000000, 276.0072534174, 0.2507668018
         160, -1.87373165e-01, 5.81341308e-03, 0.00000000e+00, 0.00000000e+00, 0.00000000e+00, -1.40608118e-01, 5.81341308e-03, -1.87373165e-01, 0.00000000e+00, -3.22311803e+01, 0.00000000e+00, 0.00000000e+00, -3.26974943e+01, 1.68695457e+02, 0.00000000e+00, -5.68702449e+00, -2.06876336e+00, -3.36988769e+00, -2.24090639e-01, 0.00000000e+00, -2.6254260672, 2.9790986137, -2.7929284139, 2.4683597243, 10.0000000000, 299.7000000000, 0.2729454041
         170, -1.87398800e-01, 5.20254686e-03, 0.00000000e+00, 0.00000000e+00, 0.00000000e+00, -1.40635899e-01, 5.20254686e-03, -1.87398800e-01, 0.00000000e+00, -3.60205886e+01, 0.00000000e+00, 0.00000000e+00, -2.59744600e+01, 1.47235901e+02, 0.00000000e+00, -5.76256367e+00, -2.12464730e+00, -3.49032952e+00, -2.98556513e-01, 0.00000000e+00, -2.7248990277, 1.8500257496, -2.9170545639, 2.6478830381, 10.0000000000, 299.7000000000, 0.2892917593
         180, -1.87403608e-01, 4.71483977e-03, 0.00000000e+00, 0.00000000e+00, 0.00000000e+00, -1.40650568e-01, 4.71483977e-03, -1.87403608e-01, 0.00000000e+00, -3.97476091e+01, 0.00000000e+00, 0.00000000e+00, -2.12292184e+01, 1.47477243e+02, 0.00000000e+00, -5.82884767e+00, -2.17371894e+00, -3.61055644e+00, -3.64067241e-01, 0.00000000e+00, -2.8226022553, 2.4400832275, -3.0413272354, 2.3136792192, 10.0000000000, 299.7000000000, 0.3050887187
         190, -1.87407361e-01, 4.31530992e-03, 0.00000000e+00, 0.00000000e+00, 0.00000000e+00, -1.40661401e-01, 4.31530992e-03, -1.87407361e-01, 0.00000000e+00, -4.34284825e+01, 0.00000000e+00, 0.00000000e+00, -1.77147528e+01, 1.44038292e+02, 0.00000000e+00, -5.88673698e+00, -2.21752393e+00, -3.73126553e+00, -4.21372500e-01, 0.00000000e+00, -2.9163210881, 2.1537532723, -3.1647756456, 2.1574579007, 10.0000000000, 299.7000000000, 0.3213732362
         200, -1.87410700e-01, 3.98140237e-03, 0.00000000e+00, 0.00000000e+00, 0.00000000e+00, -1.40671922e-01, 3.98140237e-03, -1.87410700e-01, 0.00000000e+00, -4.70715297e+01, 0.00000000e+00, 0.00000000e+00, -1.50340204e+01, 1.40376855e+02, 0.00000000e+00, -5.93779644e+00, -2.25710130e+00, -3.84921915e+00, -4.71712778e-01, 0.00000000e+00, -3.0058062978, 1.3502535037, -3.2856817645, 1.8190490818, 10.0000000000, 299.7000000000, 0.3386541843
         210, -1.87406418e-01, 3.69783787e-03, 0.00000000e+00, 0.00000000e+00, 0.00000000e+00, -1.40676130e-01, 3.69783787e-03, -1.87406418e-01, 0.00000000e+00, -5.06799986e+01, 0.00000000e+00, 0.00000000e+00, -1.29403322e+01, 1.37595542e+02, 0.00000000e+00, -5.98380481e+00, -2.29322299e+00, -3.97978133e+00, -5.17139410e-01, 0.00000000e+00, -3.0903477156, 1.8421099792, -3.4024866917, 1.7834924133, 10.0000000000, 299.7000000000, 0.3550893108
         220, -1.87407282e-01, 3.45376535e-03, 0.00000000e+00, 0.00000000e+00, 0.00000000e+00, -1.40683106e-01, 3.45376535e-03, -1.87407282e-01, 0.00000000e+00, -5.42617298e+01, 0.00000000e+00, 0.00000000e+00, -1.12716766e+01, 1.35276475e+02, 0.00000000e+00, -6.02393813e+00, -2.32645579e+00, -4.09270135e+00, -5.56414149e-01, 0.00000000e+00, -3.1704635293, 1.9618335824, -3.5138128730, 1.8173166964, 10.0000000000, 299.7000000000, 0.3710210919
         230, -1.87401470e-01, 3.24133277e-03, 0.00000000e+00, 0.00000000e+00, 0.00000000e+00, -1.40685280e-01, 3.24133277e-03, -1.87401470e-01, 0.00000000e+00, -5.78161773e+01, 0.00000000e+00, 0.00000000e+00, -9.91922462e+00, 1.33207015e+02, 0.00000000e+00, -6.06091618e+00, -2.35723922e+00, -4.21850387e+00, -5.92618704e-01, 0.00000000e+00, -3.2413481385, 1.6788892930, -3.6184943506, 1.7630769540, 10.0000000000, 299.7000000000, 0.3865817785
         240, -1.87399441e-01, 3.05466469e-03, 0.00000000e+00, 0.00000000e+00, 0.00000000e+00, -1.40689130e-01, 3.05466469e-03, -1.87399441e-01, 0.00000000e+00, -6.13486125e+01, 0.00000000e+00, 0.00000000e+00, -8.80694484e+00, 1.31172658e+02, 0.00000000e+00, -6.09388657e+00, -2.38591919e+00, -4.31989933e+00, -6.24645594e-01, 0.00000000e+00, -3.2962856919, 1.0818703582, -3.7156948933, 1.7317924222, 10.0000000000, 299.7000000000, 0.4069003900
         250, -1.87394260e-01, 2.88927933e-03, 0.00000000e+00, 0.00000000e+00, 0.00000000e+00, -1.40690755e-01, 2.88927933e-03, -1.87394260e-01, 0.00000000e+00, -6.48584781e+01, 0.00000000e+00, 0.00000000e+00, -7.88309338e+00, 1.29099019e+02, 0.00000000e+00, -6.12471719e+00, -2.41276917e+00, -4.41619158e+00, -6.54520678e-01, 0.00000000e+00, -3.3361050939, 1.4546092020, -3.8047109621, 1.7769637991, 10.0000000000, 299.7000000000, 0.4239263773
         260, -1.87390136e-01, 2.74168097e-03, 0.00000000e+00, 0.00000000e+00, 0.00000000e+00, -1.40692426e-01, 2.74168097e-03, -1.87390136e-01, 0.00000000e+00, -6.83486292e+01, 0.00000000e+00, 0.00000000e+00, -7.10147983e+00, 1.27061198e+02, 0.00000000e+00, -6.15330314e+00, -2.43801631e+00, -4.51529261e+00, -6.82103423e-01, 0.00000000e+00, -3.3477265785, 2.1342652716, -3.8839581859, 1.8096919914, 10.0000000000, 299.7000000000, 0.4401453058
         270, -1.87385525e-01, 2.60913764e-03, 0.00000000e+00, 0.00000000e+00, 0.00000000e+00, -1.40693635e-01, 2.60913764e-03, -1.87385525e-01, 0.00000000e+00, -7.18189496e+01, 0.00000000e+00, 0.00000000e+00, -6.44176919e+00, 1.25151525e+02, 0.00000000e+00, -6.18003398e+00, -2.46184079e+00, -4.57312084e+00, -7.07705754e-01, 0.00000000e+00, -3.3258933247, 1.5660966671, -3.9465891681, 1.7910214939, 10.0000000000, 299.7000000000, 0.4634619395
         280, -1.87380362e-01, 2.48949770e-03, 0.00000000e+00, 0.00000000e+00, 0.00000000e+00, -1.40694137e-01, 2.48949770e-03, -1.87380362e-01, 0.00000000e+00, -7.52683409e+01, 0.00000000e+00, 0.00000000e+00, -5.87677104e+00, 1.23416790e+02, 0.00000000e+00, -6.20545557e+00, -2.48439068e+00, -4.66054287e+00, -7.31979195e-01, 0.00000000e+00, -3.2618983402, 1.0201269314, -3.9742454880, 1.8312730229, 10.0000000000, 299.7000000000, 0.4896069924
         290, -1.87375656e-01, 2.38097658e-03, 0.00000000e+00, 0.00000000e+00, 0.00000000e+00, -1.40694846e-01, 2.38097658e-03, -1.87375656e-01, 0.00000000e+00, -7.86969755e+01, 0.00000000e+00, 0.00000000e+00, -5.38988207e+00, 1.21848490e+02, 0.00000000e+00, -6.22920855e+00, -2.50577411e+00, -4.67446993e+00, -7.54399149e-01, 0.00000000e+00, -3.1586422900, 2.1101707681, -3.9343026343, 1.9348582800, 10.0000000000, 299.7000000000, 0.5161143541
         300, -1.87369936e-01, 2.28217947e-03, 0.00000000e+00, 0.00000000e+00, 0.00000000e+00, -1.40694922e-01, 2.28217947e-03, -1.87369936e-01, 0.00000000e+00, -8.21013152e+01, 0.00000000e+00, 0.00000000e+00, -4.97153121e+00, 1.20416510e+02, 0.00000000e+00, -6.25195627e+00, -2.52605238e+00, -4.69532432e+00, -7.75710484e-01, 0.00000000e+00, -3.0442492451, 1.3399394481, -3.8190457214, 2.0535972992, 10.0000000000, 299.7000000000, 0.5366530379
         310, -1.87364360e-01, 2.19200609e-03, 0.00000000e+00, 0.00000000e+00, 0.00000000e+00, -1.40695287e-01, 2.19200609e-03, -1.87364360e-01, 0.00000000e+00, -8.54762044e+01, 0.00000000e+00, 0.00000000e+00, -4.61595359e+00, 1.19087051e+02, 0.00000000e+00, -6.27322000e+00, -2.54523203e+00, -4.65509803e+00, -7.95355118e-01, 0.00000000e+00, -2.9319330494, 2.3146467828, -3.6719933837, 2.0900532998, 10.0000000000, 299.7000000000, 0.5621130347
         320, -1.87357718e-01, 2.10957163e-03, 0.00000000e+00, 0.00000000e+00, 0.00000000e+00, -1.40695430e-01, 2.10957163e-03, -1.87357718e-01, 0.00000000e+00, -8.88131577e+01, 0.00000000e+00, 0.00000000e+00, -4.29770255e+00, 1.17837784e+02, 0.00000000e+00, -6.29335863e+00, -2.56328698e+00, -4.59634887e+00, -8.13717143e-01, 0.00000000e+00, -2.8114930188, 1.3830342572, -3.5370241856, 2.1348743937, 10.0000000000, 299.7000000000, 0.5844112118
         330, -1.87350517e-01, 2.03430405e-03, 0.00000000e+00, 0.00000000e+00, 0.00000000e+00, -1.40695852e-01, 2.03430405e-03, -1.87350517e-01, 0.00000000e+00, -9.20956319e+01, 0.00000000e+00, 0.00000000e+00, -4.03835424e+00, 1.16657911e+02, 0.00000000e+00, -6.31209131e+00, -2.58021284e+00, -4.51760243e+00, -8.30579864e-01, 0.00000000e+00, -2.7045714824, 1.8058397484, -3.4428828572, 2.1827607993, 10.0000000000, 299.7000000000, 0.6019009391
         340, -1.87342384e-01, 1.96576024e-03, 0.00000000e+00, 0.00000000e+00, 0.00000000e+00, -1.40696452e-01, 1.96576024e-03, -1.87342384e-01, 0.00000000e+00, -9.53027640e+01, 0.00000000e+00, 0.00000000e+00, -3.81580788e+00, 1.15543795e+02, 0.00000000e+00, -6.32987223e+00, -2.59614565e+00, -4.43567938e+00, -8.46427343e-01, 0.00000000e+00, -2.6201684551, 1.4629808094, -3.3920865028, 2.1929576950, 10.0000000000, 299.7000000000, 0.6175585866
         350, -1.87333663e-01, 1.90350591e-03, 0.00000000e+00, 0.00000000e+00, 0.00000000e+00, -1.40697267e-01, 1.90350591e-03, -1.87333663e-01, 0.00000000e+00, -9.84150678e+01, 0.00000000e+00, 0.00000000e+00, -3.62545545e+00, 1.14491997e+02, 0.00000000e+00, -6.34727448e+00, -2.61144374e+00, -4.38872373e+00, -8.61691597e-01, 0.00000000e+00, -2.5319303502, 2.1707857161, -3.3543017009, 2.2203980288, 10.0000000000, 299.7000000000, 0.6331603845
         360, -1.87324567e-01, 1.84716908e-03, 0.00000000e+00, 0.00000000e+00, 0.00000000e+00, -1.40698301e-01, 1.84716908e-03, -1.87324567e-01, 0.00000000e+00, -1.01411706e+02, 0.00000000e+00, 0.00000000e+00, -3.51824162e+00, 1.13497245e+02, 0.00000000e+00, -6.36397261e+00, -2.62629994e+00, -4.37120740e+00, -8.76111090e-01, 0.00000000e+00, -2.4728749683, 2.9363053736, -3.3204787205, 2.4276154750, 10.0000000000, 299.7000000000, 0.6486528079
         370, -1.87315284e-01, 1.79599841e-03, 0.00000000e+00, 0.00000000e+00, 0.00000000e+00, -1.40699378e-01, 1.79599841e-03, -1.87315284e-01, 0.00000000e+00, -1.04295907e+02, 0.00000000e+00, 0.00000000e+00, -3.38402657e+00, 1.12553279e+02, 0.00000000e+00, -6.38064134e+00, -2.64068071e+00, -4.32863388e+00, -8.90278442e-01, 0.00000000e+00, -2.4256293419, 2.0297152613, -3.2544316877, 2.2057573952, 10.0000000000, 299.7000000000, 0.6655300101
         380, -1.87306196e-01, 1.74902854e-03, 0.00000000e+00, 0.00000000e+00, 0.00000000e+00, -1.40700516e-01, 1.74902854e-03, -1.87306196e-01, 0.00000000e+00, -1.07091561e+02, 0.00000000e+00, 0.00000000e+00, -3.25742660e+00, 1.11653961e+02, 0.00000000e+00, -6.39435442e+00, -2.65442916e+00, -4.29582190e+00, -9.01847225e-01, 0.00000000e+00, -2.4006900322, 2.7908520883, -3.2490110737, 2.4218941463, 10.0000000000, 299.7000000000, 0.6822109183
         390, -1.87297092e-01, 1.70596120e-03, 0.00000000e+00, 0.00000000e+00, 0.00000000e+00, -1.40701629e-01, 1.70596120e-03, -1.87297092e-01, 0.00000000e+00, -1.09789772e+02, 0.00000000e+00, 0.00000000e+00, -3.29865444e+00, 1.10799993e+02, 0.00000000e+00, -6.41197538e+00, -2.66793260e+00, -4.37221144e+00, -9.16379723e-01, 0.00000000e+00, -2.3491775724, 3.4596452413, -3.1743665951, 2.7902893795, 10.0000000000, 299.7000000000, 0.6982289791
         400, -1.87288538e-01, 1.66553891e-03, 0.00000000e+00, 0.00000000e+00, 0.00000000e+00, -1.40702653e-01, 1.66553891e-03, -1.87288538e-01, 0.00000000e+00, -1.12449212e+02, 0.00000000e+00, 0.00000000e+00, -3.17315984e+00, 1.09973565e+02, 0.00000000e+00, -6.42513382e+00, -2.68063913e+00, -4.32621075e+00, -9.27081734e-01, 0.00000000e+00, -2.3510775400, 2.5010785767, -3.1403345576, 2.2672116030, 10.0000000000, 299.7000000000, 0.7249814510
         410, -1.87280285e-01, 1.62725126e-03, 0.00000000e+00, 0.00000000e+00, 0.00000000e+00, -1.40703546e-01, 1.62725126e-03, -1.87280285e-01, 0.00000000e+00, -1.15089962e+02, 0.00000000e+00, 0.00000000e+00, -3.07356718e+00, 1.09187743e+02, 0.00000000e+00, -6.44046782e+00, -2.69287903e+00, -4.31195867e+00, -9.39324635e-01, 0.00000000e+00, -2.3379327528, 2.4768436881, -3.1028443821, 2.3741163401, 10.0000000000, 299.7000000000, 0.7510776560
         420, -1.87272549e-01, 1.59123635e-03, 0.00000000e+00, 0.00000000e+00, 0.00000000e+00, -1.40704227e-01, 1.59123635e-03, -1.87272549e-01, 0.00000000e+00, -1.17689964e+02, 0.00000000e+00, 0.00000000e+00, -3.00049094e+00, 1.08437732e+02, 0.00000000e+00, -6.45289968e+00, -2.70450610e+00, -4.32268516e+00, -9.49345885e-01, 0.00000000e+00, -2.3074568882, 3.4820339884, -3.0728113627, 2.6146473366, 10.0000000000, 299.7391462573, 0.7758385460
         430, -1.87264933e-01, 1.55717305e-03, 0.00000000e+00, 0.00000000e+00, 0.00000000e+00, -1.40704788e-01, 1.55717305e-03, -1.87264933e-01, 0.00000000e+00, -1.20259552e+02, 0.00000000e+00, 0.00000000e+00, -3.08419586e+00, 1.07730530e+02, 0.00000000e+00, -6.46540882e+00, -2.71570596e+00, -4.30122639e+00, -9.59387930e-01, 0.00000000e+00, -2.3171521220, 3.3801945699, -3.0392823296, 2.8143765889, 10.0000000000, 299.2202054548, 0.7995534897
         440, -1.87257579e-01, 1.52492422e-03, 0.00000000e+00, 0.00000000e+00, 0.00000000e+00, -1.40705159e-01, 1.52492422e-03, -1.87257579e-01, 0.00000000e+00, -1.22797957e+02, 0.00000000e+00, 0.00000000e+00, -3.06228673e+00, 1.07055025e+02, 0.00000000e+00, -6.48175026e+00, -2.72640754e+00, -4.26686934e+00, -9.72395700e-01, 0.00000000e+00, -2.3177276806, 2.9987579976, -3.0101923948, 2.2892558049, 10.0000000000, 299.1831988461, 0.8202754339
         450, -1.87250888e-01, 1.49416294e-03, 0.00000000e+00, 0.00000000e+00, 0.00000000e+00, -1.40705300e-01, 1.49416294e-03, -1.87250888e-01, 0.00000000e+00, -1.25321599e+02, 0.00000000e+00, 0.00000000e+00, -2.92141117e+00, 1.06418530e+02, 0.00000000e+00, -6.48887439e+00, -2.73633820e+00, -4.28325921e+00, -9.78106837e-01, 0.00000000e+00, -2.3192981872, 2.5465037132, -3.0076449075, 2.3453212826, 10.0000000000, 299.2274419208, 0.8457975984
         460, -1.87244321e-01, 1.46511109e-03, 0.00000000e+00, 0.00000000e+00, 0.00000000e+00, -1.40705284e-01, 1.46511109e-03, -1.87244321e-01, 0.00000000e+00, -1.27802132e+02, 0.00000000e+00, 0.00000000e+00, -2.83307134e+00, 1.05860430e+02, 0.00000000e+00, -6.50060185e+00, -2.74605579e+00, -4.28640712e+00, -9.87876422e-01, 0.00000000e+00, -2.2861626641, 2.8475017409, -2.9759727572, 2.5189497368, 10.0000000000, 296.4548496667, 0.8627828479
         470, -1.87237852e-01, 1.43775479e-03, 0.00000000e+00, 0.00000000e+00, 0.00000000e+00, -1.40704984e-01, 1.43775479e-03, -1.87237852e-01, 0.00000000e+00, -1.30229337e+02, 0.00000000e+00, 0.00000000e+00, -2.82098042e+00, 1.05357522e+02, 0.00000000e+00, -6.50975700e+00, -2.75529552e+00, -4.23401728e+00, -9.95475397e-01, 0.00000000e+00, -2.2854270213, 3.5028252211, -2.9468443153, 2.4878115971, 10.0000000000, 298.3036100513, 0.8786826134
         480, -1.87231106e-01, 1.41196802e-03, 0.00000000e+00, 0.00000000e+00, 0.00000000e+00, -1.40704565e-01, 1.41196802e-03, -1.87231106e-01, 0.00000000e+00, -1.32602936e+02, 0.00000000e+00, 0.00000000e+00, -2.94860828e+00, 1.04914793e+02, 0.00000000e+00, -6.51969232e+00, -2.76402524e+00, -4.28284421e+00, -1.00363026e+00, 0.00000000e+00, -2.2650748078, 3.5169632273, -2.9303328461, 2.8765067523, 10.0000000000, 298.1389380113, 0.8948483507
         490, -1.87224643e-01, 1.38747726e-03, 0.00000000e+00, 0.00000000e+00, 0.00000000e+00, -1.40703883e-01, 1.38747726e-03, -1.87224643e-01, 0.00000000e+00, -1.34938891e+02, 0.00000000e+00, 0.00000000e+00, -2.84785771e+00, 1.04488030e+02, 0.00000000e+00, -6.52675748e+00, -2.77226630e+00, -4.31031690e+00, -1.00992373e+00, 0.00000000e+00, -2.2695022807, 2.7384016290, -2.9164797249, 2.2904354535, 10.0000000000, 297.2970631587, 0.9104170561
         500, -1.87218168e-01, 1.36428431e-03, 0.00000000e+00, 0.00000000e+00, 0.00000000e+00, -1.40703001e-01, 1.36428431e-03, -1.87218168e-01, 0.00000000e+00, -1.37228117e+02, 0.00000000e+00, 0.00000000e+00, -2.78979526e+00, 1.04119256e+02, 0.00000000e+00, -6.53470475e+00, -2.78011563e+00, -4.28118224e+00, -1.01706494e+00, 0.00000000e+00, -2.2577501246, 2.5422347708, -2.8929741202, 2.3335358604, 10.0000000000, 295.6472216281, 0.9317333261
         510, -1.87211840e-01, 1.34254053e-03, 0.00000000e+00, 0.00000000e+00, 0.00000000e+00, -1.40701899e-01, 1.34254053e-03, -1.87211840e-01, 0.00000000e+00, -1.39445951e+02, 0.00000000e+00, 0.00000000e+00, -2.73907429e+00, 1.03790060e+02, 0.00000000e+00, -6.54158320e+00, -2.78733137e+00, -4.25002139e+00, -1.02337721e+00, 0.00000000e+00, -2.2622808042, 3.3086847641, -2.8807138021, 2.6492485956, 10.0000000000, 292.8639661609, 0.9477758606
         520, -1.87205208e-01, 1.32218445e-03, 0.00000000e+00, 0.00000000e+00, 0.00000000e+00, -1.40700530e-01, 1.32218445e-03, -1.87205208e-01, 0.00000000e+00, -1.41587816e+02, 0.00000000e+00, 0.00000000e+00, -2.83171312e+00, 1.03497960e+02, 0.00000000e+00, -6.54729515e+00, -2.79398044e+00, -4.28422772e+00, -1.02895146e+00, 0.00000000e+00, -2.2419461881, 3.1073417452, -2.8720616652, 2.6571628601, 10.0000000000, 292.2934134767, 0.9634798129
         530, -1.87198510e-01, 1.30303468e-03, 0.00000000e+00, 0.00000000e+00, 0.00000000e+00, -1.40698938e-01, 1.30303468e-03, -1.87198510e-01, 0.00000000e+00, -1.43663490e+02, 0.00000000e+00, 0.00000000e+00, -2.83048949e+00, 1.03236112e+02, 0.00000000e+00, -6.54984110e+00, -2.80024861e+00, -4.24389019e+00, -1.03228490e+00, 0.00000000e+00, -2.2543131197, 2.9428111619, -2.8609843063, 2.2622360528, 10.0000000000, 290.9371942988, 0.9793000937
         540, -1.87191821e-01, 1.28480552e-03, 0.00000000e+00, 0.00000000e+00, 0.00000000e+00, -1.40697064e-01, 1.28480552e-03, -1.87191821e-01, 0.00000000e+00, -1.45696620e+02, 0.00000000e+00, 0.00000000e+00, -2.76700043e+00, 1.03004683e+02, 0.00000000e+00, -6.55452553e+00, -2.80577048e+00, -4.20251794e+00, -1.03736116e+00, 0.00000000e+00, -2.2583064451, 2.5723410714, -2.8649997307, 2.3495928474, 10.0000000000, 285.3294969333, 0.9955017686
         550, -1.87185122e-01, 1.26802615e-03, 0.00000000e+00, 0.00000000e+00, 0.00000000e+00, -1.40694886e-01, 1.26802615e-03, -1.87185122e-01, 0.00000000e+00, -1.47619291e+02, 0.00000000e+00, 0.00000000e+00, -2.75454202e+00, 1.02800243e+02, 0.00000000e+00, -6.55550107e+00, -2.81034234e+00, -4.18555927e+00, -1.03988183e+00, 0.00000000e+00, -2.2324953018, 3.4453092933, -2.8742168852, 2.5659949966, 10.0000000000, 280.3194483257, 1.0135043939
         560, -1.87178058e-01, 1.25267254e-03, 0.00000000e+00, 0.00000000e+00, 0.00000000e+00, -1.40692530e-01, 1.25267254e-03, -1.87178058e-01, 0.00000000e+00, -1.49422975e+02, 0.00000000e+00, 0.00000000e+00, -2.90352609e+00, 1.02626997e+02, 0.00000000e+00, -6.55264835e+00, -2.81471617e+00, -4.15558552e+00, -1.03982296e+00, 0.00000000e+00, -2.2354320779, 3.6415372579, -2.8612621912, 2.5376234020, 10.0000000000, 270.4269243428, 1.0316865524
         570, -1.87171209e-01, 1.23836273e-03, 0.00000000e+00, 0.00000000e+00, 0.00000000e+00, -1.40689932e-01, 1.23836273e-03, -1.87171209e-01, 0.00000000e+00, -1.51144091e+02, 0.00000000e+00, 0.00000000e+00, -2.82440609e+00, 1.02462929e+02, 0.00000000e+00, -6.56225643e+00, -2.81900883e+00, -4.13403659e+00, -1.04943957e+00, 0.00000000e+00, -2.2048242043, 2.5893034398, -2.8296665564, 2.2791716482, 10.0000000000, 254.0821028450, 1.0488445759
         580, -1.87164419e-01, 1.22524139e-03, 0.00000000e+00, 0.00000000e+00, 0.00000000e+00, -1.40687043e-01, 1.22524139e-03, -1.87164419e-01, 0.00000000e+00, -1.52757180e+02, 0.00000000e+00, 0.00000000e+00, -2.78160229e+00, 1.02325549e+02, 0.00000000e+00, -6.57949372e+00, -2.82248604e+00, -4.17428413e+00, -1.06483725e+00, 0.00000000e+00, -2.1991126238, 2.7884400612, -2.8013309904, 2.4441979169, 10.0000000000, 244.2672952523, 1.0647875468
         590, -1.87157617e-01, 1.21355978e-03, 0.00000000e+00, 0.00000000e+00, 0.00000000e+00, -1.40683949e-01, 1.21355978e-03, -1.87157617e-01, 0.00000000e+00, -1.54222000e+02, 0.00000000e+00, 0.00000000e+00, -2.85455512e+00, 1.02205772e+02, 0.00000000e+00, -6.58764857e+00, -2.82542813e+00, -4.22467030e+00, -1.07314836e+00, 0.00000000e+00, -2.1941383065, 3.1457525604, -2.7778181725, 2.5294999102, 10.0000000000, 234.3713156792, 1.0807662010
         600, -1.87150816e-01, 1.20310544e-03, 0.00000000e+00, 0.00000000e+00, 0.00000000e+00, -1.40680691e-01, 1.20310544e-03, -1.87150816e-01, 0.00000000e+00, -1.55556455e+02, 0.00000000e+00, 0.00000000e+00, -2.91135273e+00, 1.02101082e+02, 0.00000000e+00, -6.59144144e+00, -2.82749507e+00, -4.27317781e+00, -1.07766916e+00, 0.00000000e+00, -2.1911491157, 2.8586038140, -2.7573674359, 2.2896111463, 10.0000000000, 227.4319194440, 1.0963936806
         610, -1.87144269e-01, 1.19331406e-03, 0.00000000e+00, 0.00000000e+00, 0.00000000e+00, -1.40677232e-01, 1.19331406e-03, -1.87144269e-01, 0.00000000e+00, -1.56827339e+02, 0.00000000e+00, 0.00000000e+00, -2.85526268e+00, 1.02008070e+02, 0.00000000e+00, -6.59139685e+00, -2.82877003e+00, -4.27443347e+00, -1.07929361e+00, 0.00000000e+00, -2.1911582083, 2.5196758058, -2.7396933506, 2.3542260232, 10.0000000000, 219.3367318345, 1.1153248072
         620, -1.87137617e-01, 1.18458055e-03, 0.00000000e+00, 0.00000000e+00, 0.00000000e+00, -1.40673547e-01, 1.18458055e-03, -1.87137617e-01, 0.00000000e+00, -1.57977959e+02, 0.00000000e+00, 0.00000000e+00, -2.89178349e+00, 1.01925293e+02, 0.00000000e+00, -6.58903380e+00, -2.82943220e+00, -4.23769919e+00, -1.07910194e+00, 0.00000000e+00, -2.1945149546, 3.3263481499, -2.7299516668, 2.3683559416, 10.0000000000, 211.9059621525, 1.1307138165
         630, -1.87130707e-01, 1.17674180e-03, 0.00000000e+00, 0.00000000e+00, 0.00000000e+00, -1.40669645e-01, 1.17674180e-03, -1.87130707e-01, 0.00000000e+00, -1.59024441e+02, 0.00000000e+00, 0.00000000e+00, -3.00209989e+00, 1.01851562e+02, 0.00000000e+00, -6.58620850e+00, -2.82944027e+00, -4.24892455e+00, -1.07829279e+00, 0.00000000e+00, -2.1867337099, 2.9726482163, -2.7223048462, 2.3140157839, 10.0000000000, 205.6581285162, 1.1461876551
         640, -1.87123981e-01, 1.16926725e-03, 0.00000000e+00, 0.00000000e+00, 0.00000000e+00, -1.40665509e-01, 1.16926725e-03, -1.87123981e-01, 0.00000000e+00, -1.60035253e+02, 0.00000000e+00, 0.00000000e+00, -2.94497676e+00, 1.01783239e+02, 0.00000000e+00, -6.57880972e+00, -2.82928352e+00, -4.21670771e+00, -1.07419622e+00, 0.00000000e+00, -2.1860006408, 2.4080915806, -2.7041612946, 2.3707962052, 10.0000000000, 198.7550753603, 1.1623769323
         650, -1.87117252e-01, 1.16264953e-03, 0.00000000e+00, 0.00000000e+00, 0.00000000e+00, -1.40661267e-01, 1.16264953e-03, -1.87117252e-01, 0.00000000e+00, -1.60940375e+02, 0.00000000e+00, 0.00000000e+00, -2.96908737e+00, 1.01721805e+02, 0.00000000e+00, -6.57988735e+00, -2.82880087e+00, -4.16674688e+00, -1.07700896e+00, 0.00000000e+00, -2.1916761613, 3.2694725520, -2.6916380297, 2.4269975788, 10.0000000000, 186.2966756839, 1.1787628889