TITLE = "SU2 Simulation"
VARIABLES = "Iteration","CL","CD","CSF","CMx","CMy","CMz","CFx","CFy","CFz","CL/CD","AoA","Custom_ObjFunc","HeatFlux_Total","HeatFlux_Maximum","Temperature_Total","Res_Flow[0]","Res_Flow[1]","Res_Flow[2]","Res_Flow[3]","Res_Flow[4]","Res_Turb[0]","Res_Turb[1]","Linear_Solver_Iterations","CFL_Number","Time(min)"
ZONE T= "Convergence history"
           0, 1.24720381e-02, 7.18380834e-02, 0.00000000e+00, 0.00000000e+00, 0.00000000e+00, 5.33444113e-03, 7.12770058e-02, 1.53574221e-02, 0.00000000e+00, 1.73613180e-01, 2.31000000e+00, 0.00000000e+00, -2.23480769e+05, 2.14227621e+05, 0.00000000e+00, -1.70011403e+00, -1.08248207e+01, -1.11219562e+01, 3.80541079e+00, 0.00000000e+00, -0.0606992188, 5.6996577267, 2.0000000000, 2.5000000000, 0.0015750011
          10, 1.98983323e-01, 2.25081937e-01, 0.00000000e+00, 0.00000000e+00, 0.00000000e+00, 7.50690349e-02, 2.16878771e-01, 2.07893818e-01, 0.00000000e+00, 8.84048384e-01, 2.31000000e+00, 0.00000000e+00, -5.53065908e+04, 6.47179911e+04, 0.00000000e+00, -2.22039330e+00, 2.02040257e-01, 2.90815360e-01, 3.28743160e+00, 0.00000000e+00, -0.4074109515, 4.9619188435, 8.0000000000, 4.5386234282, 0.0101179679
          20, 1.95860764e-01, 2.00993414e-01, 0.00000000e+00, 0.00000000e+00, 0.00000000e+00, 7.42353898e-02, 1.92935682e-01, 2.03802880e-01, 0.00000000e+00, 9.74463590e-01, 2.31000000e+00, 0.00000000e+00, -3.45832750e+04, 3.85387494e+04, 0.00000000e+00, -2.14521265e+00, 2.22744104e-01, 3.61635918e-01, 3.34733836e+00, 0.00000000e+00, -0.6621481547, 4.6041003865, 6.0000000000, 3.5863709365, 0.0168701847
          30, 1.91378862e-01, 1.72229513e-01, 0.00000000e+00, 0.00000000e+00, 0.00000000e+00, 7.46927484e-02, 1.64375804e-01, 1.98165257e-01, 0.00000000e+00, 1.11118506e+00, 2.31000000e+00, 0.00000000e+00, -2.63353243e+04, 2.74028225e+04, 0.00000000e+00, -2.09857134e+00, 2.83870552e-01, 3.86574603e-01, 3.38189139e+00, 0.00000000e+00, -0.8135708574, 4.4432671410, 6.0000000000, 3.0358353253, 0.0239109675
          40, 1.89236445e-01, 1.47862797e-01, 0.00000000e+00, 0.00000000e+00, 0.00000000e+00, 7.74887995e-02, 1.40115241e-01, 1.95042452e-01, 0.00000000e+00, 1.27981107e+00, 2.31000000e+00, 0.00000000e+00, -2.16470350e+04, 2.15051779e+04, 0.00000000e+00, -2.06039623e+00, 3.45129717e-01, 4.07126362e-01, 3.40990090e+00, 0.00000000e+00, -0.9216300067, 4.3331035201, 6.0000000000, 2.6540913345, 0.0319127679
          50, 1.89385821e-01, 1.30165540e-01, 0.00000000e+00, 0.00000000e+00, 0.00000000e+00, 8.15985885e-02, 1.22426344e-01, 1.94478398e-01, 0.00000000e+00, 1.45496129e+00, 2.31000000e+00, 0.00000000e+00, -1.85380534e+04, 1.78470583e+04, 0.00000000e+00, -2.02428819e+00, 3.82595203e-01, 4.16912177e-01, 3.43638938e+00, 0.00000000e+00, -1.0054763579, 4.2400069737, 5.0000000000, 2.5025000000, 0.0380913178
          60, 1.91258808e-01, 1.17611182e-01, 0.00000000e+00, 0.00000000e+00, 0.00000000e+00, 8.65507852e-02, 1.09806695e-01, 1.95843844e-01, 0.00000000e+00, 1.62619578e+00, 2.31000000e+00, 0.00000000e+00, -1.61271108e+04, 1.53208383e+04, 0.00000000e+00, -1.98570529e+00, 4.08285237e-01, 4.16929082e-01, 3.46780421e+00, 0.00000000e+00, -1.0788381911, 4.1658406335, 5.0000000000, 2.5025000000, 0.0441455682
          70, 1.93586449e-01, 1.09314923e-01, 0.00000000e+00, 0.00000000e+00, 0.00000000e+00, 9.12608844e-02, 1.01423360e-01, 1.97835203e-01, 0.00000000e+00, 1.77090596e+00, 2.31000000e+00, 0.00000000e+00, -1.41254225e+04, 1.36476755e+04, 0.00000000e+00, -1.94072556e+00, 4.39172382e-01, 4.20691691e-01, 3.50936910e+00, 0.00000000e+00, -1.1450392819, 4.1456216647, 5.0000000000, 2.5025000000, 0.0506546696
          80, 1.95057111e-01, 1.04274942e-01, 0.00000000e+00, 0.00000000e+00, 0.00000000e+00, 9.44441060e-02, 9.63281974e-02, 1.99101527e-01, 0.00000000e+00, 1.87060388e+00, 2.31000000e+00, 0.00000000e+00, -1.23813879e+04, 1.24549932e+04, 0.00000000e+00, -1.89307104e+00, 4.81008790e-01, 4.47069688e-01, 3.55526244e+00, 0.00000000e+00, -1.2053827556, 4.1033234307, 5.0000000000, 2.5025000000, 0.0565171679
          90, 1.96570993e-01, 1.01776144e-01, 0.00000000e+00, 0.00000000e+00, 0.00000000e+00, 9.54792508e-02, 9.37704116e-02, 2.00513463e-01, 0.00000000e+00, 1.93140539e+00, 2.31000000e+00, 0.00000000e+00, -1.08239259e+04, 1.13753908e+04, 0.00000000e+00, -1.85315989e+00, 5.21817214e-01, 4.84955133e-01, 3.59531608e+00, 0.00000000e+00, -1.2607779722, 4.0839973768, 5.0000000000, 2.5025000000, 0.0622908195
         100, 2.00090093e-01, 1.02065431e-01, 0.00000000e+00, 0.00000000e+00, 0.00000000e+00, 9.46182900e-02, 9.39176216e-02, 2.04041363e-01, 0.00000000e+00, 1.96041002e+00, 2.31000000e+00, 0.00000000e+00, -9.46988662e+03, 1.03751026e+04, 0.00000000e+00, -1.81697433e+00, 5.57277490e-01, 5.20141671e-01, 3.63043193e+00, 0.00000000e+00, -1.3122321042, 4.0696866395, 5.0000000000, 2.5025000000, 0.0680886507
         110, 2.04197260e-01, 1.05482512e-01, 0.00000000e+00, 0.00000000e+00, 0.00000000e+00, 9.32555287e-02, 9.71663817e-02, 2.08282921e-01, 0.00000000e+00, 1.93583994e+00, 2.31000000e+00, 0.00000000e+00, -8.33697518e+03, 9.58689689e+03, 0.00000000e+00, -1.78623138e+00, 5.86477138e-01, 5.49924739e-01, 3.65874144e+00, 0.00000000e+00, -1.3619036615, 4.0544678394, 5.0000000000, 2.5025000000, 0.0739538829
         120, 2.06487643e-01, 1.10602316e-01, 0.00000000e+00, 0.00000000e+00, 0.00000000e+00, 9.34198251e-02, 1.02189708e-01, 2.10777803e-01, 0.00000000e+00, 1.86693779e+00, 2.31000000e+00, 0.00000000e+00, -7.39589093e+03, 9.01439812e+03, 0.00000000e+00, -1.75930637e+00, 5.99954488e-01, 5.71668351e-01, 3.68034884e+00, 0.00000000e+00, -1.4126496639, 4.0554081910, 5.0000000000, 2.5025000000, 0.0797526360
         130, 2.09298068e-01, 1.14135087e-01, 0.00000000e+00, 0.00000000e+00, 0.00000000e+00, 9.61463038e-02, 1.05606331e-01, 2.13728337e-01, 0.00000000e+00, 1.83377499e+00, 2.31000000e+00, 0.00000000e+00, -6.59389000e+03, 8.49811486e+03, 0.00000000e+00, -1.73828002e+00, 5.97527882e-01, 5.81906987e-01, 3.69556621e+00, 0.00000000e+00, -1.4635810113, 4.0572149294, 5.0000000000, 2.5025000000, 0.0855485996
         140, 2.19569990e-01, 1.14295243e-01, 0.00000000e+00, 0.00000000e+00, 0.00000000e+00, 1.00811609e-01, 1.05352335e-01, 2.23998367e-01, 0.00000000e+00, 1.92107724e+00, 2.31000000e+00, 0.00000000e+00, -5.90506638e+03, 7.96168390e+03, 0.00000000e+00, -1.71747180e+00, 6.17413587e-01, 5.95442112e-01, 3.71407284e+00, 0.00000000e+00, -1.5093264713, 4.0478634716, 5.0000000000, 2.5025000000, 0.0913094362
         150, 2.38719346e-01, 1.11820319e-01, 0.00000000e+00, 0.00000000e+00, 0.00000000e+00, 1.07078234e-01, 1.02107585e-01, 2.43032407e-01, 0.00000000e+00, 2.13484765e+00, 2.31000000e+00, 0.00000000e+00, -5.32908608e+03, 7.47373248e+03, 0.00000000e+00, -1.70362547e+00, 6.27880362e-01, 6.08223613e-01, 3.72290601e+00, 0.00000000e+00, -1.5490354026, 4.0317243228, 5.0000000000, 2.5025000000, 0.0969795505
         160, 2.61324571e-01, 1.07692172e-01, 0.00000000e+00, 0.00000000e+00, 0.00000000e+00, 1.15405874e-01, 9.70716620e-02, 2.65452873e-01, 0.00000000e+00, 2.42658837e+00, 2.31000000e+00, 0.00000000e+00, -4.85676013e+03, 7.09155117e+03, 0.00000000e+00, -1.69532686e+00, 5.95610604e-01, 5.94657183e-01, 3.72038063e+00, 0.00000000e+00, -1.5865123700, 3.9971496804, 5.0000000000, 2.5025000000, 0.1026638190
         170, 2.84017728e-01, 1.02337845e-01, 0.00000000e+00, 0.00000000e+00, 0.00000000e+00, 1.25642258e-01, 9.08070114e-02, 2.87911776e-01, 0.00000000e+00, 2.77529519e+00, 2.31000000e+00, 0.00000000e+00, -4.47405980e+03, 6.76868935e+03, 0.00000000e+00, -1.68839308e+00, 5.60567295e-01, 5.63747727e-01, 3.71892791e+00, 0.00000000e+00, -1.6214125324, 3.9518824328, 5.0000000000, 2.5025000000, 0.1095658342
         180, 3.06729172e-01, 9.60141253e-02, 0.00000000e+00, 0.00000000e+00, 0.00000000e+00, 1.36633778e-01, 8.35730194e-02, 3.10349880e-01, 0.00000000e+00, 3.19462549e+00, 2.31000000e+00, 0.00000000e+00, -4.15357835e+03, 6.52641066e+03, 0.00000000e+00, -1.68263065e+00, 5.49000549e-01, 5.34360568e-01, 3.72085744e+00, 0.00000000e+00, -1.6492458467, 3.9337550109, 5.0000000000, 2.5025000000, 0.1153469682
         190, 3.29335053e-01, 8.91028552e-02, 0.00000000e+00, 0.00000000e+00, 0.00000000e+00, 1.46988185e-01, 7.57562087e-02, 3.32658823e-01, 0.00000000e+00, 3.69612233e+00, 2.31000000e+00, 0.00000000e+00, -3.86531135e+03, 6.42507933e+03, 0.00000000e+00, -1.67728408e+00, 5.50596666e-01, 5.12979163e-01, 3.72453089e+00, 0.00000000e+00, -1.6645342528, 3.9160405437, 5.0000000000, 2.5025000000, 0.1211026351
         200, 3.50379959e-01, 8.20724291e-02, 0.00000000e+00, 0.00000000e+00, 0.00000000e+00, 1.55772723e-01, 6.78832559e-02, 3.53403258e-01, 0.00000000e+00, 4.26915546e+00, 2.31000000e+00, 0.00000000e+00, -3.58977051e+03, 6.43004204e+03, 0.00000000e+00, -1.67317993e+00, 5.56789818e-01, 5.02954146e-01, 3.72772115e+00, 0.00000000e+00, -1.6649760476, 3.9200457077, 5.0000000000, 2.5025000000, 0.1268412193
         210, 3.68120808e-01, 7.56688699e-02, 0.00000000e+00, 0.00000000e+00, 0.00000000e+00, 1.62436227e-01, 6.07698344e-02, 3.70871588e-01, 0.00000000e+00, 4.86489106e+00, 2.31000000e+00, 0.00000000e+00, -3.32409190e+03, 6.42969101e+03, 0.00000000e+00, -1.66956967e+00, 5.65640778e-01, 5.00787189e-01, 3.73089801e+00, 0.00000000e+00, -1.6521822126, 3.9447348790, 5.0000000000, 2.5025000000, 0.1326798360
         220, 3.81316476e-01, 7.06111172e-02, 0.00000000e+00, 0.00000000e+00, 0.00000000e+00, 1.66503237e-01, 5.51843247e-02, 3.83852674e-01, 0.00000000e+00, 5.40023287e+00, 2.31000000e+00, 0.00000000e+00, -3.06843386e+03, 6.30192556e+03, 0.00000000e+00, -1.66889366e+00, 5.67081617e-01, 4.93834543e-01, 3.73048996e+00, 0.00000000e+00, -1.6316430327, 3.9684167651, 5.0000000000, 2.5012098684, 0.1383412162
         230, 3.90106018e-01, 6.68542052e-02, 0.00000000e+00, 0.00000000e+00, 0.00000000e+00, 1.67950247e-01, 5.10761928e-02, 3.92483646e-01, 0.00000000e+00, 5.83517546e+00, 2.31000000e+00, 0.00000000e+00, -2.82588776e+03, 6.05663721e+03, 0.00000000e+00, -1.66779995e+00, 5.52008572e-01, 4.77874557e-01, 3.72940707e+00, 0.00000000e+00, -1.6127044101, 3.9753981787, 5.0000000000, 2.5007876473, 0.1440022508
         240, 3.96716887e-01, 6.36402538e-02, 0.00000000e+00, 0.00000000e+00, 0.00000000e+00, 1.67581618e-01, 4.75983942e-02, 3.98959601e-01, 0.00000000e+00, 6.23374143e+00, 2.31000000e+00, 0.00000000e+00, -2.60493806e+03, 5.80583807e+03, 0.00000000e+00, -1.66736617e+00, 5.27015575e-01, 4.65888530e-01, 3.72826027e+00, 0.00000000e+00, -1.6032698364, 3.9755776432, 5.0000000000, 2.5011271583, 0.1496698340
         250, 4.04535638e-01, 6.02993350e-02, 0.00000000e+00, 0.00000000e+00, 0.00000000e+00, 1.66890244e-01, 4.39450463e-02, 4.06637339e-01, 0.00000000e+00, 6.70879104e+00, 2.31000000e+00, 0.00000000e+00, -2.41578517e+03, 5.61008817e+03, 0.00000000e+00, -1.66838876e+00, 5.04264095e-01, 4.68180724e-01, 3.72657789e+00, 0.00000000e+00, -1.5966749430, 3.9742605782, 5.0000000000, 2.5038517452, 0.1553450863
         260, 4.16265451e-01, 5.66690053e-02, 0.00000000e+00, 0.00000000e+00, 0.00000000e+00, 1.67339206e-01, 3.98448827e-02, 4.18211295e-01, 0.00000000e+00, 7.34555775e+00, 2.31000000e+00, 0.00000000e+00, -2.26516138e+03, 5.42937619e+03, 0.00000000e+00, -1.66912485e+00, 4.85930642e-01, 4.72626562e-01, 3.72506149e+00, 0.00000000e+00, -1.5878052441, 3.9956760520, 5.0000000000, 2.5060604693, 0.1610225161
         270, 4.32971496e-01, 5.28140187e-02, 0.00000000e+00, 0.00000000e+00, 0.00000000e+00, 1.69596415e-01, 3.53196719e-02, 4.34748384e-01, 0.00000000e+00, 8.19804109e+00, 2.31000000e+00, 0.00000000e+00, -2.15044643e+03, 5.27820595e+03, 0.00000000e+00, -1.66973597e+00, 4.80420145e-01, 4.70646513e-01, 3.72418045e+00, 0.00000000e+00, -1.5787938044, 4.0238362355, 5.0000000000, 2.5080605747, 0.1666708827
         280, 4.53777854e-01, 4.87283507e-02, 0.00000000e+00, 0.00000000e+00, 0.00000000e+00, 1.73126473e-01, 3.03986991e-02, 4.55373157e-01, 0.00000000e+00, 9.31239921e+00, 2.31000000e+00, 0.00000000e+00, -2.07334889e+03, 5.23187819e+03, 0.00000000e+00, -1.66811556e+00, 4.93016261e-01, 4.67156177e-01, 3.72678005e+00, 0.00000000e+00, -1.5698167193, 4.0381679165, 5.0000000000, 2.5002408274, 0.1723084172
         290, 4.76245878e-01, 4.43974205e-02, 0.00000000e+00, 0.00000000e+00, 0.00000000e+00, 1.76530091e-01, 2.51656879e-02, 4.77648360e-01, 0.00000000e+00, 1.07268817e+01, 2.31000000e+00, 0.00000000e+00, -2.03199681e+03, 5.29038908e+03, 0.00000000e+00, -1.66462229e+00, 5.10702865e-01, 4.66458839e-01, 3.73246554e+00, 0.00000000e+00, -1.5612874477, 4.0234566708, 5.0000000000, 2.5025000000, 0.1779725194
         300, 4.97355010e-01, 4.00339684e-02, 0.00000000e+00, 0.00000000e+00, 0.00000000e+00, 1.78333885e-01, 1.99549531e-02, 4.98564464e-01, 0.00000000e+00, 1.24233253e+01, 2.31000000e+00, 0.00000000e+00, -2.01967366e+03, 5.36850256e+03, 0.00000000e+00, -1.66050634e+00, 5.20751228e-01, 4.67374237e-01, 3.73885534e+00, 0.00000000e+00, -1.5523143469, 4.0186416569, 5.0000000000, 2.5025000000, 0.1836281180
         310, 5.14592000e-01, 3.61298064e-02, 0.00000000e+00, 0.00000000e+00, 0.00000000e+00, 1.77658757e-01, 1.53592064e-02, 5.15630085e-01, 0.00000000e+00, 1.42428663e+01, 2.31000000e+00, 0.00000000e+00, -2.02862895e+03, 5.44279244e+03, 0.00000000e+00, -1.65544040e+00, 5.22831815e-01, 4.70316584e-01, 3.74523897e+00, 0.00000000e+00, -1.5458567835, 4.0019535836, 5.0000000000, 2.5025000000, 0.1892780026
         320, 5.26597104e-01, 3.32521478e-02, 0.00000000e+00, 0.00000000e+00, 0.00000000e+00, 1.74518852e-01, 1.20000064e-02, 5.27509445e-01, 0.00000000e+00, 1.58364839e+01, 2.31000000e+00, 0.00000000e+00, -2.03641798e+03, 5.47845365e+03, 0.00000000e+00, -1.65110744e+00, 5.23710087e-01, 4.86107640e-01, 3.74904916e+00, 0.00000000e+00, -1.5439271946, 3.9991906253, 5.0000000000, 2.5025000000, 0.1949550351
         330, 5.33022643e-01, 3.16920129e-02, 0.00000000e+00, 0.00000000e+00, 0.00000000e+00, 1.69644502e-01, 1.01821504e-02, 5.33866880e-01, 0.00000000e+00, 1.68188321e+01, 2.31000000e+00, 0.00000000e+00, -2.04435306e+03, 5.49743823e+03, 0.00000000e+00, -1.65012317e+00, 5.28517121e-01, 5.19072865e-01, 3.74750935e+00, 0.00000000e+00, -1.5436828737, 3.9998211155, 6.0000000000, 2.5006467236, 0.2007177830
         340, 5.34825136e-01, 3.12645112e-02, 0.00000000e+00, 0.00000000e+00, 0.00000000e+00, 1.64376110e-01, 9.68234445e-03, 5.35650677e-01, 0.00000000e+00, 1.71064608e+01, 2.31000000e+00, 0.00000000e+00, -2.02393988e+03, 5.44319096e+03, 0.00000000e+00, -1.64943147e+00, 5.36274970e-01, 5.48031752e-01, 3.74528984e+00, 0.00000000e+00, -1.5417440477, 3.9766098679, 6.0000000000, 2.5025000000, 0.2065759023
         350, 5.34150861e-01, 3.13322713e-02, 0.00000000e+00, 0.00000000e+00, 0.00000000e+00, 1.60197270e-01, 9.77722690e-03, 5.34979681e-01, 0.00000000e+00, 1.70479457e+01, 2.31000000e+00, 0.00000000e+00, -1.98636864e+03, 5.34119740e+03, 0.00000000e+00, -1.64301696e+00, 5.39277813e-01, 5.49077443e-01, 3.75069961e+00, 0.00000000e+00, -1.5348089449, 4.0246765851, 5.0000000000, 2.5025000000, 0.2122843345
         360, 5.34154302e-01, 3.11060797e-02, 0.00000000e+00, 0.00000000e+00, 0.00000000e+00, 1.58234592e-01, 9.55108044e-03, 5.34974003e-01, 0.00000000e+00, 1.71720225e+01, 2.31000000e+00, 0.00000000e+00, -1.91431057e+03, 5.19349840e+03, 0.00000000e+00, -1.63005239e+00, 5.30753266e-01, 5.20637256e-01, 3.76444503e+00, 0.00000000e+00, -1.5229468637, 3.9956732278, 5.0000000000, 2.5025000000, 0.2179562529
         370, 5.37635861e-01, 3.00345936e-02, 0.00000000e+00, 0.00000000e+00, 0.00000000e+00, 1.58682173e-01, 8.34013669e-03, 5.38409545e-01, 0.00000000e+00, 1.79005539e+01, 2.31000000e+00, 0.00000000e+00, -1.81938277e+03, 5.07534675e+03, 0.00000000e+00, -1.61608317e+00, 5.20268859e-01, 4.97346838e-01, 3.77989527e+00, 0.00000000e+00, -1.5115155222, 4.0655301244, 5.0000000000, 2.5025000000, 0.2236042341
         380, 5.46032994e-01, 2.80682478e-02, 0.00000000e+00, 0.00000000e+00, 0.00000000e+00, 1.60954993e-01, 6.03693241e-03, 5.46720598e-01, 0.00000000e+00, 1.94537613e+01, 2.31000000e+00, 0.00000000e+00, -1.71882722e+03, 4.96531340e+03, 0.00000000e+00, -1.60586116e+00, 5.28014861e-01, 5.23336963e-01, 3.79190709e+00, 0.00000000e+00, -1.5036713249, 4.0613631638, 5.0000000000, 2.5025000000, 0.2293105841
         390, 5.59050522e-01, 2.55398581e-02, 0.00000000e+00, 0.00000000e+00, 0.00000000e+00, 1.64106220e-01, 2.98591045e-03, 5.59625638e-01, 0.00000000e+00, 2.18893355e+01, 2.31000000e+00, 0.00000000e+00, -1.59578433e+03, 4.90821836e+03, 0.00000000e+00, -1.59898131e+00, 5.50900518e-01, 5.74164916e-01, 3.79973443e+00, 0.00000000e+00, -1.5018788392, 4.1064991554, 5.0000000000, 2.5025000000, 0.2349787672
         400, 5.75063093e-01, 2.29769286e-02, 0.00000000e+00, 0.00000000e+00, 0.00000000e+00, 1.67195896e-01, -2.20341998e-04, 5.75521895e-01, 0.00000000e+00, 2.50278487e+01, 2.31000000e+00, 0.00000000e+00, -1.51691202e+03, 4.74114578e+03, 0.00000000e+00, -1.59260351e+00, 5.67820700e-01, 5.98380575e-01, 3.80504958e+00, 0.00000000e+00, -1.5032376681, 4.0950611082, 5.0000000000, 2.5025000000, 0.2406937003
         410, 5.92306881e-01, 2.07781291e-02, 0.00000000e+00, 0.00000000e+00, 0.00000000e+00, 1.69578808e-01, -3.11238597e-03, 5.92663045e-01, 0.00000000e+00, 2.85062663e+01, 2.31000000e+00, 0.00000000e+00, -1.41947579e+03, 4.69404729e+03, 0.00000000e+00, -1.58425774e+00, 5.79032388e-01, 5.77394721e-01, 3.81192686e+00, 0.00000000e+00, -1.5105514252, 4.1121591576, 5.0000000000, 2.5025000000, 0.2463950197
         420, 6.09188350e-01, 1.91344328e-02, 0.00000000e+00, 0.00000000e+00, 0.00000000e+00, 1.70803691e-01, -5.43517417e-03, 6.09464545e-01, 0.00000000e+00, 3.18372829e+01, 2.31000000e+00, 0.00000000e+00, -1.37202888e+03, 4.50971465e+03, 0.00000000e+00, -1.57397027e+00, 6.06553849e-01, 5.30526024e-01, 3.82364150e+00, 0.00000000e+00, -1.5192568155, 4.1291314287, 5.0000000000, 2.5025000000, 0.2521259348
         430, 6.24679023e-01, 1.80713554e-02, 0.00000000e+00, 0.00000000e+00, 0.00000000e+00, 1.70669211e-01, -7.12175762e-03, 6.24899781e-01, 0.00000000e+00, 3.45673586e+01, 2.31000000e+00, 0.00000000e+00, -1.33489052e+03, 4.54284239e+03, 0.00000000e+00, -1.56441803e+00, 6.48264100e-01, 5.18506718e-01, 3.83717511e+00, 0.00000000e+00, -1.5279486135, 4.1099671190, 5.0000000000, 2.5025000000, 0.2577755531
         440, 6.38207343e-01, 1.74733686e-02, 0.00000000e+00, 0.00000000e+00, 0.00000000e+00, 1.69057453e-01, -8.26453347e-03, 6.38393005e-01, 0.00000000e+00, 3.65245740e+01, 2.31000000e+00, 0.00000000e+00, -1.31966798e+03, 4.36278417e+03, 0.00000000e+00, -1.55800822e+00, 6.72490205e-01, 5.63204577e-01, 3.84544131e+00, 0.00000000e+00, -1.5384561541, 4.1781395663, 5.0000000000, 2.5025000000, 0.2634060502
         450, 6.49635050e-01, 1.72978833e-02, 0.00000000e+00, 0.00000000e+00, 0.00000000e+00, 1.66058195e-01, -8.90048340e-03, 6.49804352e-01, 0.00000000e+00, 3.75557540e+01, 2.31000000e+00, 0.00000000e+00, -1.31799151e+03, 4.41420111e+03, 0.00000000e+00, -1.55421208e+00, 6.56958721e-01, 6.06851927e-01, 3.84581660e+00, 0.00000000e+00, -1.5490414707, 4.1205257092, 5.0000000000, 2.5025000000, 0.2690823674
         460, 6.59151402e-01, 1.74944856e-02, 0.00000000e+00, 0.00000000e+00, 0.00000000e+00, 1.61884042e-01, -9.08760872e-03, 6.59320896e-01, 0.00000000e+00, 3.76776670e+01, 2.31000000e+00, 0.00000000e+00, -1.32718424e+03, 4.37193349e+03, 0.00000000e+00, -1.55019371e+00, 6.02334566e-01, 6.15657456e-01, 3.84316035e+00, 0.00000000e+00, -1.5553411554, 4.1686605047, 5.0000000000, 2.5025000000, 0.2746981025
         470, 6.66740992e-01, 1.79254780e-02, 0.00000000e+00, 0.00000000e+00, 0.00000000e+00, 1.56809554e-01, -8.96287389e-03, 6.66921689e-01, 0.00000000e+00, 3.71951582e+01, 2.31000000e+00, 0.00000000e+00, -1.35016158e+03, 4.22805094e+03, 0.00000000e+00, -1.54375506e+00, 5.33728250e-01, 5.94728323e-01, 3.84439596e+00, 0.00000000e+00, -1.5551140839, 4.1364051505, 5.0000000000, 2.5025000000, 0.2803418358
         480, 6.72900598e-01, 1.84835933e-02, 0.00000000e+00, 0.00000000e+00, 0.00000000e+00, 1.51427256e-01, -8.65348241e-03, 6.73098785e-01, 0.00000000e+00, 3.64052913e+01, 2.31000000e+00, 0.00000000e+00, -1.36153321e+03, 4.33410514e+03, 0.00000000e+00, -1.53510526e+00, 4.94564175e-01, 5.68334901e-01, 3.85162823e+00, 0.00000000e+00, -1.5462462276, 4.1395868988, 5.0000000000, 2.5025000000, 0.2860030015
         490, 6.78265492e-01, 1.90203371e-02, 0.00000000e+00, 0.00000000e+00, 0.00000000e+00, 1.46355156e-01, -8.33341320e-03, 6.78480954e-01, 0.00000000e+00, 3.56600143e+01, 2.31000000e+00, 0.00000000e+00, -1.39740131e+03, 4.19512518e+03, 0.00000000e+00, -1.52608544e+00, 4.99029581e-01, 5.61050767e-01, 3.86142987e+00, 0.00000000e+00, -1.5316818632, 4.1255813167, 5.0000000000, 2.5025000000, 0.2916581353
         500, 6.83337359e-01, 1.93592402e-02, 0.00000000e+00, 0.00000000e+00, 0.00000000e+00, 1.42024510e-01, -8.19921312e-03, 6.83562359e-01, 0.00000000e+00, 3.52977365e+01, 2.31000000e+00, 0.00000000e+00, -1.41009234e+03, 4.26993628e+03, 0.00000000e+00, -1.51809338e+00, 5.18469539e-01, 5.74515940e-01, 3.86994375e+00, 0.00000000e+00, -1.5171820286, 4.1286666456, 5.0000000000, 2.5025000000, 0.2972911358
         510, 6.88767578e-01, 1.95039286e-02, 0.00000000e+00, 0.00000000e+00, 0.00000000e+00, 1.38652255e-01, -8.27351367e-03, 6.88993998e-01, 0.00000000e+00, 3.53142996e+01, 2.31000000e+00, 0.00000000e+00, -1.42090052e+03, 4.28767688e+03, 0.00000000e+00, -1.51101267e+00, 5.33473807e-01, 5.94271259e-01, 3.87639691e+00, 0.00000000e+00, -1.5047206361, 4.1076170708, 5.0000000000, 2.5025000000, 0.3028673013
         520, 6.94677173e-01, 1.94984664e-02, 0.00000000e+00, 0.00000000e+00, 0.00000000e+00, 1.36045858e-01, -8.51716466e-03, 6.94898570e-01, 0.00000000e+00, 3.56272724e+01, 2.31000000e+00, 0.00000000e+00, -1.42566832e+03, 4.30574003e+03, 0.00000000e+00, -1.50380912e+00, 5.43563481e-01, 6.12306832e-01, 3.88239822e+00, 0.00000000e+00, -1.4971108500, 4.0771662072, 5.0000000000, 2.5025000000, 0.3086280028
         530, 7.00601935e-01, 1.94339947e-02, 0.00000000e+00, 0.00000000e+00, 0.00000000e+00, 1.33721632e-01, -8.82038850e-03, 7.00815919e-01, 0.00000000e+00, 3.60503306e+01, 2.31000000e+00, 0.00000000e+00, -1.40791342e+03, 4.34980219e+03, 0.00000000e+00, -1.49588867e+00, 5.53002883e-01, 6.30400909e-01, 3.88923091e+00, 0.00000000e+00, -1.4947360626, 4.0965945509, 5.0000000000, 2.5025000000, 0.3142911514
         540, 7.05861882e-01, 1.94188366e-02, 0.00000000e+00, 0.00000000e+00, 0.00000000e+00, 1.31191518e-01, -9.04754268e-03, 7.06070981e-01, 0.00000000e+00, 3.63493394e+01, 2.31000000e+00, 0.00000000e+00, -1.37492011e+03, 4.37254744e+03, 0.00000000e+00, -1.48763924e+00, 5.62592299e-01, 6.51575328e-01, 3.89656646e+00, 0.00000000e+00, -1.4921676665, 4.0424017278, 5.0000000000, 2.5025000000, 0.3199481169
         550, 7.10242823e-01, 1.95905047e-02, 0.00000000e+00, 0.00000000e+00, 0.00000000e+00, 1.28225046e-01, -9.05259310e-03, 7.10455281e-01, 0.00000000e+00, 3.62544423e+01, 2.31000000e+00, 0.00000000e+00, -1.33633239e+03, 4.42643743e+03, 0.00000000e+00, -1.47985956e+00, 5.72209782e-01, 6.74572708e-01, 3.90344608e+00, 0.00000000e+00, -1.4811071313, 4.0542580576, 5.0000000000, 2.5025000000, 0.3256129503
         560, 7.13491660e-01, 1.99935010e-02, 0.00000000e+00, 0.00000000e+00, 0.00000000e+00, 1.24741895e-01, -8.78087251e-03, 7.13717721e-01, 0.00000000e+00, 3.56861792e+01, 2.31000000e+00, 0.00000000e+00, -1.30352110e+03, 4.47885976e+03, 0.00000000e+00, -1.47321488e+00, 5.84608805e-01, 6.96305491e-01, 3.90935397e+00, 0.00000000e+00, -1.4596188924, 4.0150426821, 5.0000000000, 2.5025000000, 0.3312860688
         570, 7.15579797e-01, 2.05732610e-02, 0.00000000e+00, 0.00000000e+00, 0.00000000e+00, 1.20800650e-01, -8.28574844e-03, 7.15827529e-01, 0.00000000e+00, 3.47820307e+01, 2.31000000e+00, 0.00000000e+00, -1.26532928e+03, 4.53894742e+03, 0.00000000e+00, -1.46810132e+00, 6.04004006e-01, 7.16022425e-01, 3.91440105e+00, 0.00000000e+00, -1.4288792922, 4.0358015796, 5.0000000000, 2.5025000000, 0.3368620992
         580, 7.16441683e-01, 2.12474461e-02, 0.00000000e+00, 0.00000000e+00, 0.00000000e+00, 1.16481341e-01, -7.64685053e-03, 7.16715888e-01, 0.00000000e+00, 3.37189551e+01, 2.31000000e+00, 0.00000000e+00, -1.23358565e+03, 4.59379834e+03, 0.00000000e+00, -1.46482515e+00, 6.31927197e-01, 7.35658294e-01, 3.91889470e+00, 0.00000000e+00, -1.3909728331, 3.9817126319, 5.0000000000, 2.5025000000, 0.3424250166
         590, 7.16308085e-01, 2.19520265e-02, 0.00000000e+00, 0.00000000e+00, 0.00000000e+00, 1.11914885e-01, -6.93745784e-03, 7.16610798e-01, 0.00000000e+00, 3.26306131e+01, 2.31000000e+00, 0.00000000e+00, -1.20924896e+03, 4.63842692e+03, 0.00000000e+00, -1.46410469e+00, 6.65360033e-01, 7.55788236e-01, 3.92262765e+00, 0.00000000e+00, -1.3493322751, 3.9880336558, 5.0000000000, 2.5026528792, 0.3479776502
         600, 7.15077201e-01, 2.26309068e-02, 0.00000000e+00, 0.00000000e+00, 0.00000000e+00, 1.07128903e-01, -6.20951703e-03, 7.15408277e-01, 0.00000000e+00, 3.15973729e+01, 2.31000000e+00, 0.00000000e+00, -1.20245262e+03, 4.67737865e+03, 0.00000000e+00, -1.46801033e+00, 6.98266633e-01, 7.71538420e-01, 3.92379310e+00, 0.00000000e+00, -1.3020266957, 3.9454083951, 5.0000000000, 2.5121737107, 0.3536182165
         610, 7.12838077e-01, 2.32978839e-02, 0.00000000e+00, 0.00000000e+00, 0.00000000e+00, 1.02273489e-01, -5.45283136e-03, 7.13197856e-01, 0.00000000e+00, 3.05966876e+01, 2.31000000e+00, 0.00000000e+00, -1.19177097e+03, 4.71729430e+03, 0.00000000e+00, -1.48035839e+00, 7.24190520e-01, 7.73226514e-01, 3.91855609e+00, 0.00000000e+00, -1.2509257423, 3.9369086431, 5.0000000000, 2.5450512459, 0.3592112859
         620, 7.09970471e-01, 2.40560102e-02, 0.00000000e+00, 0.00000000e+00, 0.00000000e+00, 9.76879259e-02, -4.57973892e-03, 7.10363138e-01, 0.00000000e+00, 2.95132262e+01, 2.31000000e+00, 0.00000000e+00, -1.18383256e+03, 4.76544988e+03, 0.00000000e+00, -1.50593730e+00, 7.37808063e-01, 7.49894857e-01, 3.90186098e+00, 0.00000000e+00, -1.1962392244, 3.9123323566, 5.0000000000, 2.6164828397, 0.3649399161
         630, 7.07414449e-01, 2.50733517e-02, 0.00000000e+00, 0.00000000e+00, 0.00000000e+00, 9.39548437e-02, -3.46020069e-03, 7.07850198e-01, 0.00000000e+00, 2.82137968e+01, 2.31000000e+00, 0.00000000e+00, -1.17289097e+03, 4.82521231e+03, 0.00000000e+00, -1.54894848e+00, 7.34863065e-01, 6.91458782e-01, 3.86870225e+00, 0.00000000e+00, -1.1413531800, 3.9021568800, 5.0000000000, 2.7433837290, 0.3705807169
         640, 7.06249825e-01, 2.64429106e-02, 0.00000000e+00, 0.00000000e+00, 0.00000000e+00, 9.17487735e-02, -2.04481314e-03, 7.06741722e-01, 0.00000000e+00, 2.67084753e+01, 2.31000000e+00, 0.00000000e+00, -1.16039743e+03, 4.89245487e+03, 0.00000000e+00, -1.61045763e+00, 7.11516967e-01, 5.93101087e-01, 3.81540240e+00, 0.00000000e+00, -1.0878186552, 3.8753568245, 6.0000000000, 2.9389303456, 0.3763815006
         650, 7.07711824e-01, 2.80454078e-02, 0.00000000e+00, 0.00000000e+00, 0.00000000e+00, 9.17370821e-02, -5.02545766e-04, 7.08267124e-01, 0.00000000e+00, 2.52344993e+01, 2.31000000e+00, 0.00000000e+00, -1.12660938e+03, 4.95010850e+03, 0.00000000e+00, -1.68188521e+00, 6.64948892e-01, 4.85038085e-01, 3.74356491e+00, 0.00000000e+00, -1.0398993428, 3.8629836084, 6.0000000000, 3.1904467884, 0.3822454691
         660, 7.12371308e-01, 2.93964681e-02, 0.00000000e+00, 0.00000000e+00, 0.00000000e+00, 9.40641378e-02, 6.59610646e-04, 7.12977278e-01, 0.00000000e+00, 2.42332278e+01, 2.31000000e+00, 0.00000000e+00, -1.06803960e+03, 4.97048707e+03, 0.00000000e+00, -1.73725954e+00, 5.99348023e-01, 4.71610597e-01, 3.67125722e+00, 0.00000000e+00, -0.9983578842, 3.8463812869, 6.0000000000, 3.4122055807, 0.3880566001
         670, 7.19131247e-01, 2.98519977e-02, 0.00000000e+00, 0.00000000e+00, 0.00000000e+00, 9.77304013e-02, 8.42302666e-04, 7.19750083e-01, 0.00000000e+00, 2.40898869e+01, 2.31000000e+00, 0.00000000e+00, -9.95902222e+02, 4.94742702e+03, 0.00000000e+00, -1.75960934e+00, 5.35496176e-01, 5.36503299e-01, 3.62881171e+00, 0.00000000e+00, -0.9661891008, 3.8099635466, 6.0000000000, 3.5118180198, 0.3938837528
         680, 7.24675751e-01, 2.90970710e-02, 0.00000000e+00, 0.00000000e+00, 0.00000000e+00, 1.00684860e-01, -1.35488344e-04, 7.25259653e-01, 0.00000000e+00, 2.49054536e+01, 2.31000000e+00, 0.00000000e+00, -9.25291852e+02, 4.91003827e+03, 0.00000000e+00, -1.77830333e+00, 4.92724286e-01, 5.70051374e-01, 3.60651781e+00, 0.00000000e+00, -0.9401352395, 3.7939035243, 6.0000000000, 3.5816841547, 0.3996937195
         690, 7.25482695e-01, 2.73317771e-02, 0.00000000e+00, 0.00000000e+00, 0.00000000e+00, 1.00934696e-01, -1.93187248e-03, 7.25994789e-01, 0.00000000e+00, 2.65435610e+01, 2.31000000e+00, 0.00000000e+00, -8.57485725e+02, 4.89202092e+03, 0.00000000e+00, -1.83035382e+00, 4.54323442e-01, 5.40390357e-01, 3.56055484e+00, 0.00000000e+00, -0.9110140666, 3.7728860344, 6.0000000000, 3.7836132168, 0.4055258512
         700, 7.19368234e-01, 2.50280321e-02, 0.00000000e+00, 0.00000000e+00, 0.00000000e+00, 9.71064509e-02, -3.98729490e-03, 7.19792442e-01, 0.00000000e+00, 2.87425009e+01, 2.31000000e+00, 0.00000000e+00, -8.05535969e+02, 4.91620293e+03, 0.00000000e+00, -1.92770241e+00, 3.86169108e-01, 4.40734899e-01, 3.46499234e+00, 0.00000000e+00, -0.8711871802, 3.7583332096, 6.0000000000, 4.2139230973, 0.4113622348
         710, 7.06707971e-01, 2.28279205e-02, 0.00000000e+00, 0.00000000e+00, 0.00000000e+00, 8.94215533e-02, -5.67533174e-03, 7.07053789e-01, 0.00000000e+00, 3.09580530e+01, 2.31000000e+00, 0.00000000e+00, -7.76540673e+02, 4.99460812e+03, 0.00000000e+00, -2.01710322e+00, 2.75688820e-01, 2.94829564e-01, 3.36859557e+00, 0.00000000e+00, -0.8290083737, 3.7397816718, 7.0000000000, 4.7030030393, 0.4173949679