TITLE = "SU2 Simulation"
VARIABLES = "Iteration","CL","CD","CSF","CMx","CMy","CMz","CFx","CFy","CFz","CL/CD","AoA","Custom_ObjFunc","HeatFlux_Total","HeatFlux_Maximum","Temperature_Total","Res_Flow[0]","Res_Flow[1]","Res_Flow[2]","Res_Flow[3]","Res_Flow[4]","Res_Turb[0]","Res_Turb[1]","Linear_Solver_Iterations","CFL_Number","Time(min)"
ZONE T= "Convergence history"
           0, -4.17610538e-01, 1.14682383e-01, 0.00000000e+00, 0.00000000e+00, 0.00000000e+00, -3.13214352e-01, 1.14682383e-01, -4.17610538e-01, 0.00000000e+00, -3.64145327e+00, 0.00000000e+00, 0.00000000e+00, -1.55541591e+07, 1.40108290e+07, 0.00000000e+00, -1.56625812e+01, -6.11260646e+00, -6.64721471e+00, 4.72224245e+00, 0.00000000e+00, -3.1763975707, 7.4559259373, 1.0000000000, 2.5000000000, 0.0010851900
          10, -3.83306919e-02, 2.89123192e-02, 0.00000000e+00, 0.00000000e+00, 0.00000000e+00, -2.87552229e-02, 2.89123192e-02, -3.83306919e-02, 0.00000000e+00, -1.32575639e+00, 0.00000000e+00, 0.00000000e+00, -3.16740519e+05, 2.86910238e+05, 0.00000000e+00, -1.50240159e+00, 1.39126060e+00, 9.97869897e-01, 4.25780713e+00, 0.00000000e+00, -3.7468481343, 7.7656712630, 3.0000000000, 4.3151659599, 0.0120598356
          20, -6.53459817e-03, 2.00125805e-02, 0.00000000e+00, 0.00000000e+00, 0.00000000e+00, -4.89378385e-03, 2.00125805e-02, -6.53459817e-03, 0.00000000e+00, -3.26524517e-01, 0.00000000e+00, 0.00000000e+00, -1.07194400e+05, 1.17238404e+05, 0.00000000e+00, -1.92046812e+00, 9.44874709e-01, 6.45092421e-01, 3.82979268e+00, 0.00000000e+00, -3.9113173577, 6.3885412246, 6.0000000000, 7.1477258511, 0.0243377765
          30, -4.29362992e-03, 1.56714725e-02, 0.00000000e+00, 0.00000000e+00, 0.00000000e+00, -3.21166671e-03, 1.56714725e-02, -4.29362992e-03, 0.00000000e+00, -2.73977440e-01, 0.00000000e+00, 0.00000000e+00, -6.41333910e+04, 6.96296381e+04, 0.00000000e+00, -2.06114821e+00, 7.83698814e-01, 5.00287397e-01, 3.67238221e+00, 0.00000000e+00, -4.0021457120, 5.6436253637, 6.0000000000, 8.6446482376, 0.0371398489
          40, -3.94722270e-03, 1.29573441e-02, 0.00000000e+00, 0.00000000e+00, 0.00000000e+00, -2.94184846e-03, 1.29573441e-02, -3.94722270e-03, 0.00000000e+00, -3.04632082e-01, 0.00000000e+00, 0.00000000e+00, -3.02857490e+04, 4.32006862e+04, 0.00000000e+00, -2.12563917e+00, 6.88267014e-01, 4.28418154e-01, 3.58177092e+00, 0.00000000e+00, -4.0497873858, 5.3824957842, 6.0000000000, 9.2554115568, 0.0494846423
          50, -3.63361508e-03, 1.09878930e-02, 0.00000000e+00, 0.00000000e+00, 0.00000000e+00, -2.58499731e-03, 1.09878930e-02, -3.63361508e-03, 0.00000000e+00, -3.30692616e-01, 0.00000000e+00, 0.00000000e+00, -1.16895316e+04, 3.14859980e+04, 0.00000000e+00, -2.30188787e+00, 5.02735536e-01, 2.40627608e-01, 3.38988682e+00, 0.00000000e+00, -4.0702533288, 5.2701523193, 6.0000000000, 11.1333950301, 0.0617086490
          60, -4.18423487e-03, 9.27682891e-03, 0.00000000e+00, 0.00000000e+00, 0.00000000e+00, -3.14739298e-03, 9.27682891e-03, -4.18423487e-03, 0.00000000e+00, -4.51041504e-01, 0.00000000e+00, 0.00000000e+00, 2.87259009e+03, 2.37737811e+04, 0.00000000e+00, -2.66074557e+00, 1.83485321e-01, -1.65202714e-01, 3.02746190e+00, 0.00000000e+00, -4.3462052127, 5.0960084078, 8.0000000000, 16.4333934583, 0.0744304975
          70, -4.34180213e-03, 7.46343958e-03, 0.00000000e+00, 0.00000000e+00, 0.00000000e+00, -3.12685595e-03, 7.46343958e-03, -4.34180213e-03, 0.00000000e+00, -5.81742786e-01, 0.00000000e+00, 0.00000000e+00, 9.46229529e+03, 1.83853090e+04, 0.00000000e+00, -3.13879124e+00, -1.11923199e-01, -8.58266311e-01, 2.58461746e+00, 0.00000000e+00, -4.9642553951, 5.1271698775, 11.0000000000, 28.7246623517, 0.0881922046
          80, -3.18341856e-03, 5.82544372e-03, 0.00000000e+00, 0.00000000e+00, 0.00000000e+00, -2.42521559e-03, 5.82544372e-03, -3.18341856e-03, 0.00000000e+00, -5.46467998e-01, 0.00000000e+00, 0.00000000e+00, 9.97997962e+03, 1.56369740e+04, 0.00000000e+00, -3.35275464e+00, -2.55708787e-01, -1.49427157e+00, 2.39646387e+00, 0.00000000e+00, -5.0175997322, 4.9244234845, 12.0000000000, 37.8717000458, 0.1027861277
          90, -2.39702455e-03, 4.67143977e-03, 0.00000000e+00, 0.00000000e+00, 0.00000000e+00, -1.79984002e-03, 4.67143977e-03, -2.39702455e-03, 0.00000000e+00, -5.13123291e-01, 0.00000000e+00, 0.00000000e+00, 1.22728021e+04, 1.50993492e+04, 0.00000000e+00, -3.48956769e+00, -3.85989843e-01, -1.67809896e+00, 2.25872250e+00, 0.00000000e+00, -4.9098271744, 4.6272216005, 13.0000000000, 44.3386600274, 0.1179616014
         100, -1.87157531e-03, 3.83094612e-03, 0.00000000e+00, 0.00000000e+00, 0.00000000e+00, -1.39490852e-03, 3.83094612e-03, -1.87157531e-03, 0.00000000e+00, -4.88541276e-01, 0.00000000e+00, 0.00000000e+00, 1.30919459e+04, 1.58441253e+04, 0.00000000e+00, -3.60331741e+00, -4.93888361e-01, -1.94100518e+00, 2.14691015e+00, 0.00000000e+00, -4.3922166515, 4.4934292395, 13.0000000000, 50.6545125736, 0.1330051303
         110, -1.51717065e-03, 3.20001630e-03, 0.00000000e+00, 0.00000000e+00, 0.00000000e+00, -1.11876416e-03, 3.20001630e-03, -1.51717065e-03, 0.00000000e+00, -4.74113412e-01, 0.00000000e+00, 0.00000000e+00, 1.31199818e+04, 1.67791152e+04, 0.00000000e+00, -3.70176936e+00, -5.89778713e-01, -2.14832320e+00, 2.04902885e+00, 0.00000000e+00, -3.5939271583, 4.3306339925, 13.0000000000, 56.8663957031, 0.1482781092
         120, -1.26481084e-03, 2.71416563e-03, 0.00000000e+00, 0.00000000e+00, 0.00000000e+00, -9.20354827e-04, 2.71416563e-03, -1.26481084e-03, 0.00000000e+00, -4.66003558e-01, 0.00000000e+00, 0.00000000e+00, 1.26748435e+04, 1.73366387e+04, 0.00000000e+00, -3.78882903e+00, -6.75576071e-01, -2.30741488e+00, 1.96210333e+00, 0.00000000e+00, -2.6567933394, 4.1965820333, 13.0000000000, 62.8989400731, 0.1634895364
         130, -1.07825754e-03, 2.33204681e-03, 0.00000000e+00, 0.00000000e+00, 0.00000000e+00, -7.71871780e-04, 2.33204681e-03, -1.07825754e-03, 0.00000000e+00, -4.62365309e-01, 0.00000000e+00, 0.00000000e+00, 1.19969737e+04, 1.75320777e+04, 0.00000000e+00, -3.86586355e+00, -7.52725323e-01, -2.43954911e+00, 1.88504406e+00, 0.00000000e+00, -1.6028613377, 4.0752397760, 13.0000000000, 68.8309433523, 0.1787695487
         140, -9.46190517e-04, 2.02718942e-03, 0.00000000e+00, 0.00000000e+00, 0.00000000e+00, -6.64249012e-04, 2.02718942e-03, -9.46190517e-04, 0.00000000e+00, -4.66749928e-01, 0.00000000e+00, 0.00000000e+00, 1.12512185e+04, 1.75931069e+04, 0.00000000e+00, -3.92848368e+00, -8.18868828e-01, -2.60259582e+00, 1.82145664e+00, 0.00000000e+00, -0.4683964953, 4.0149075259, 15.0000000000, 74.1852401066, 0.1941690763
         150, -9.68517063e-04, 1.79888304e-03, 0.00000000e+00, 0.00000000e+00, 0.00000000e+00, -6.72168509e-04, 1.79888304e-03, -9.68517063e-04, 0.00000000e+00, -5.38399129e-01, 0.00000000e+00, 0.00000000e+00, 1.08705027e+04, 1.76151765e+04, 0.00000000e+00, -3.86651304e+00, -7.75245580e-01, -2.18728679e+00, 1.87968537e+00, 0.00000000e+00, 0.4790093010, 4.1262066093, 15.0000000000, 63.3792244214, 0.2103141904
         160, -1.20420970e-03, 1.69540554e-03, 0.00000000e+00, 0.00000000e+00, 0.00000000e+00, -8.40468285e-04, 1.69540554e-03, -1.20420970e-03, 0.00000000e+00, -7.10278266e-01, 0.00000000e+00, 0.00000000e+00, 1.10313442e+04, 1.76252197e+04, 0.00000000e+00, -3.72576433e+00, -6.48365333e-01, -2.06270314e+00, 2.01653293e+00, 0.00000000e+00, 0.5854259885, 3.6933896434, 12.0000000000, 37.1383030462, 0.2255806526
         170, -1.40151532e-03, 1.66190839e-03, 0.00000000e+00, 0.00000000e+00, 0.00000000e+00, -9.79488944e-04, 1.66190839e-03, -1.40151532e-03, 0.00000000e+00, -8.43316833e-01, 0.00000000e+00, 0.00000000e+00, 1.05878400e+04, 1.76356382e+04, 0.00000000e+00, -3.67473828e+00, -5.98711692e-01, -2.06248783e+00, 2.06405133e+00, 0.00000000e+00, 0.5451107398, 3.6727367540, 10.0000000000, 30.7601880486, 0.2400250793
         180, -1.56715878e-03, 1.68875720e-03, 0.00000000e+00, 0.00000000e+00, 0.00000000e+00, -1.09421617e-03, 1.68875720e-03, -1.56715878e-03, 0.00000000e+00, -9.27995321e-01, 0.00000000e+00, 0.00000000e+00, 9.97213325e+03, 1.76370230e+04, 0.00000000e+00, -3.64408577e+00, -5.68320801e-01, -2.10410408e+00, 2.09268190e+00, 0.00000000e+00, 0.4935389843, 3.6558107969, 10.0000000000, 27.7597575140, 0.2539947152
         190, -1.69531822e-03, 1.76279749e-03, 0.00000000e+00, 0.00000000e+00, 0.00000000e+00, -1.18024563e-03, 1.76279749e-03, -1.69531822e-03, 0.00000000e+00, -9.61720347e-01, 0.00000000e+00, 0.00000000e+00, 9.48192923e+03, 1.76459476e+04, 0.00000000e+00, -3.62988828e+00, -5.53602919e-01, -2.15192403e+00, 2.10437440e+00, 0.00000000e+00, 0.4215462644, 3.6448916680, 9.0000000000, 26.2281724128, 0.2674839377
         200, -1.78585365e-03, 1.86301709e-03, 0.00000000e+00, 0.00000000e+00, 0.00000000e+00, -1.23689599e-03, 1.86301709e-03, -1.78585365e-03, 0.00000000e+00, -9.58581461e-01, 0.00000000e+00, 0.00000000e+00, 9.18065455e+03, 1.76979434e+04, 0.00000000e+00, -3.62236170e+00, -5.48469630e-01, -2.15745267e+00, 2.10994303e+00, 0.00000000e+00, 0.3363646971, 3.6411260067, 9.0000000000, 25.4429000067, 0.2812839429
         210, -1.84822868e-03, 1.97025700e-03, 0.00000000e+00, 0.00000000e+00, 0.00000000e+00, -1.27090440e-03, 1.97025700e-03, -1.84822868e-03, 0.00000000e+00, -9.38064770e-01, 0.00000000e+00, 0.00000000e+00, 9.06396221e+03, 1.77753857e+04, 0.00000000e+00, -3.62431533e+00, -5.52234635e-01, -2.21722525e+00, 2.10587369e+00, 0.00000000e+00, 0.2478869183, 3.6118710838, 9.0000000000, 25.4027799094, 0.2947610021
         220, -1.89052136e-03, 2.07161547e-03, 0.00000000e+00, 0.00000000e+00, 0.00000000e+00, -1.28810737e-03, 2.07161547e-03, -1.89052136e-03, 0.00000000e+00, -9.12583148e-01, 0.00000000e+00, 0.00000000e+00, 9.06330315e+03, 1.78466435e+04, 0.00000000e+00, -3.63162549e+00, -5.61813192e-01, -2.21296479e+00, 2.09731407e+00, 0.00000000e+00, 0.1552467501, 3.5768668337, 9.0000000000, 25.5114685265, 0.3086198250
         230, -1.91708183e-03, 2.16103917e-03, 0.00000000e+00, 0.00000000e+00, 0.00000000e+00, -1.29127869e-03, 2.16103917e-03, -1.91708183e-03, 0.00000000e+00, -8.87111097e-01, 0.00000000e+00, 0.00000000e+00, 9.10532315e+03, 1.78969333e+04, 0.00000000e+00, -3.64450319e+00, -5.76420597e-01, -2.25769421e+00, 2.08345871e+00, 0.00000000e+00, 0.0721885266, 3.5100220568, 9.0000000000, 25.9219761443, 0.3221279462
         240, -1.93284496e-03, 2.23615810e-03, 0.00000000e+00, 0.00000000e+00, 0.00000000e+00, -1.28381778e-03, 2.23615810e-03, -1.93284496e-03, 0.00000000e+00, -8.64359705e-01, 0.00000000e+00, 0.00000000e+00, 9.15253283e+03, 1.79259897e+04, 0.00000000e+00, -3.66420047e+00, -5.96385328e-01, -2.25237814e+00, 2.06315673e+00, 0.00000000e+00, 0.0197494822, 3.4360054729, 9.0000000000, 26.4656026818, 0.3357487440
         250, -1.94155459e-03, 2.29666852e-03, 0.00000000e+00, 0.00000000e+00, 0.00000000e+00, -1.26830692e-03, 2.29666852e-03, -1.94155459e-03, 0.00000000e+00, -8.45378674e-01, 0.00000000e+00, 0.00000000e+00, 9.18814262e+03, 1.79346509e+04, 0.00000000e+00, -3.68557001e+00, -6.18544683e-01, -2.27798534e+00, 2.04151155e+00, 0.00000000e+00, 0.0069354503, 3.3427109192, 9.0000000000, 27.1166572149, 0.3494332314
         260, -1.94628677e-03, 2.34309472e-03, 0.00000000e+00, 0.00000000e+00, 0.00000000e+00, -1.24686557e-03, 2.34309472e-03, -1.94628677e-03, 0.00000000e+00, -8.30647923e-01, 0.00000000e+00, 0.00000000e+00, 9.21025117e+03, 1.79215238e+04, 0.00000000e+00, -3.71139442e+00, -6.44304396e-01, -2.30704582e+00, 2.01535644e+00, 0.00000000e+00, 0.0207380207, 3.2460502393, 9.0000000000, 27.9390097062, 0.3628688971
         270, -1.94989091e-03, 2.37619257e-03, 0.00000000e+00, 0.00000000e+00, 0.00000000e+00, -1.22170765e-03, 2.37619257e-03, -1.94989091e-03, 0.00000000e+00, -8.20594650e-01, 0.00000000e+00, 0.00000000e+00, 9.22534489e+03, 1.78893778e+04, 0.00000000e+00, -3.73933512e+00, -6.72124821e-01, -2.32231012e+00, 1.98759645e+00, 0.00000000e+00, 0.0385119626, 3.1417379998, 9.0000000000, 28.8234240983, 0.3765483499
         280, -1.95518351e-03, 2.39677100e-03, 0.00000000e+00, 0.00000000e+00, 0.00000000e+00, -1.19522086e-03, 2.39677100e-03, -1.95518351e-03, 0.00000000e+00, -8.15757328e-01, 0.00000000e+00, 0.00000000e+00, 9.24216944e+03, 1.78453550e+04, 0.00000000e+00, -3.77054357e+00, -7.02446584e-01, -2.37028636e+00, 1.95711304e+00, 0.00000000e+00, 0.0435977518, 3.0276909881, 9.0000000000, 29.8933991210, 0.3900628090
         290, -1.96530183e-03, 2.40556121e-03, 0.00000000e+00, 0.00000000e+00, 0.00000000e+00, -1.17063063e-03, 2.40556121e-03, -1.96530183e-03, 0.00000000e+00, -8.16982675e-01, 0.00000000e+00, 0.00000000e+00, 9.26848123e+03, 1.77978938e+04, 0.00000000e+00, -3.80821288e+00, -7.37495654e-01, -2.39595296e+00, 1.92093059e+00, 0.00000000e+00, 0.0324518071, 2.9534607818, 9.0000000000, 31.1688034813, 0.4035658439
         300, -1.98346267e-03, 2.40322104e-03, 0.00000000e+00, 0.00000000e+00, 0.00000000e+00, -1.15192956e-03, 2.40322104e-03, -1.98346267e-03, 0.00000000e+00, -8.25335097e-01, 0.00000000e+00, 0.00000000e+00, 9.30360649e+03, 1.77539474e+04, 0.00000000e+00, -3.85261794e+00, -7.78143230e-01, -2.43650848e+00, 1.87915500e+00, 0.00000000e+00, 0.0057844302, 2.9564351727, 9.0000000000, 32.7698081709, 0.4172420700
         310, -2.01313068e-03, 2.39046144e-03, 0.00000000e+00, 0.00000000e+00, 0.00000000e+00, -1.14441140e-03, 2.39046144e-03, -2.01313068e-03, 0.00000000e+00, -8.42151499e-01, 0.00000000e+00, 0.00000000e+00, 9.33760744e+03, 1.77170278e+04, 0.00000000e+00, -3.91112973e+00, -8.29406039e-01, -2.49098711e+00, 1.82540316e+00, 0.00000000e+00, -0.0348838377, 3.0391385273, 10.0000000000, 35.0072633033, 0.4311208765
         320, -2.05800864e-03, 2.36803536e-03, 0.00000000e+00, 0.00000000e+00, 0.00000000e+00, -1.15516368e-03, 2.36803536e-03, -2.05800864e-03, 0.00000000e+00, -8.69078512e-01, 0.00000000e+00, 0.00000000e+00, 9.35485710e+03, 1.76872229e+04, 0.00000000e+00, -3.98901429e+00, -8.94760872e-01, -2.54699413e+00, 1.75605463e+00, 0.00000000e+00, -0.0892646339, 3.1368971802, 10.0000000000, 38.1706576257, 0.4452029586
         330, -2.12019979e-03, 2.33648670e-03, 0.00000000e+00, 0.00000000e+00, 0.00000000e+00, -1.19052993e-03, 2.33648670e-03, -2.12019979e-03, 0.00000000e+00, -9.07430713e-01, 0.00000000e+00, 0.00000000e+00, 9.32999672e+03, 1.76644601e+04, 0.00000000e+00, -4.08943943e+00, -9.74877542e-01, -2.61287152e+00, 1.66969430e+00, 0.00000000e+00, -0.1579085903, 3.1993590752, 11.0000000000, 42.7674232771, 0.4593481580
         340, -2.19402957e-03, 2.29643730e-03, 0.00000000e+00, 0.00000000e+00, 0.00000000e+00, -1.24540512e-03, 2.29643730e-03, -2.19402957e-03, 0.00000000e+00, -9.55405824e-01, 0.00000000e+00, 0.00000000e+00, 9.21931017e+03, 1.76482285e+04, 0.00000000e+00, -4.19719678e+00, -1.05746281e+00, -2.69731630e+00, 1.57910650e+00, 0.00000000e+00, -0.2402955076, 3.1889035327, 11.0000000000, 48.4272922692, 0.4733496865
         350, -2.26810570e-03, 2.24967235e-03, 0.00000000e+00, 0.00000000e+00, 0.00000000e+00, -1.30386006e-03, 2.24967235e-03, -2.26810570e-03, 0.00000000e+00, -1.00819379e+00, 0.00000000e+00, 0.00000000e+00, 8.99840450e+03, 1.76371081e+04, 0.00000000e+00, -4.29550502e+00, -1.13243650e+00, -2.77285424e+00, 1.49676091e+00, 0.00000000e+00, -0.3338788706, 3.2299551262, 12.0000000000, 54.2979411840, 0.4871832609
         360, -2.33778639e-03, 2.19907504e-03, 0.00000000e+00, 0.00000000e+00, 0.00000000e+00, -1.35839021e-03, 2.19907504e-03, -2.33778639e-03, 0.00000000e+00, -1.06307713e+00, 0.00000000e+00, 0.00000000e+00, 8.68229384e+03, 1.76301515e+04, 0.00000000e+00, -4.38542506e+00, -1.20187982e+00, -2.83450748e+00, 1.42130966e+00, 0.00000000e+00, -0.4249995603, 3.2894985597, 12.0000000000, 60.2623809485, 0.5012750665
         370, -2.40384926e-03, 2.14776256e-03, 0.00000000e+00, 0.00000000e+00, 0.00000000e+00, -1.40938368e-03, 2.14776256e-03, -2.40384926e-03, 0.00000000e+00, -1.11923418e+00, 0.00000000e+00, 0.00000000e+00, 8.28579482e+03, 1.76261242e+04, 0.00000000e+00, -4.46996808e+00, -1.26850863e+00, -2.89300207e+00, 1.35050448e+00, 0.00000000e+00, -0.4933047096, 3.3381214005, 13.0000000000, 66.4620877410, 0.5156200488
         380, -2.46806892e-03, 2.09866342e-03, 0.00000000e+00, 0.00000000e+00, 0.00000000e+00, -1.45898337e-03, 2.09866342e-03, -2.46806892e-03, 0.00000000e+00, -1.17601941e+00, 0.00000000e+00, 0.00000000e+00, 7.81552103e+03, 1.76248812e+04, 0.00000000e+00, -4.55072481e+00, -1.33386840e+00, -2.94461633e+00, 1.28309366e+00, 0.00000000e+00, -0.5290702831, 3.3724718594, 14.0000000000, 72.9693501920, 0.5302858710
         390, -2.53166425e-03, 2.05417873e-03, 0.00000000e+00, 0.00000000e+00, 0.00000000e+00, -1.50884801e-03, 2.05417873e-03, -2.53166425e-03, 0.00000000e+00, -1.23244594e+00, 0.00000000e+00, 0.00000000e+00, 7.27676685e+03, 1.76261060e+04, 0.00000000e+00, -4.62858982e+00, -1.39868897e+00, -2.99102997e+00, 1.21819736e+00, 0.00000000e+00, -0.5472535415, 3.3931646946, 14.0000000000, 79.8339843321, 0.5452194969
         400, -2.59488712e-03, 2.01580220e-03, 0.00000000e+00, 0.00000000e+00, 0.00000000e+00, -1.55945492e-03, 2.01580220e-03, -2.59488712e-03, 0.00000000e+00, -1.28727269e+00, 0.00000000e+00, 0.00000000e+00, 6.67860079e+03, 1.76296326e+04, 0.00000000e+00, -4.70456864e+00, -1.46351682e+00, -3.03647998e+00, 1.15471988e+00, 0.00000000e+00, -0.5665219620, 3.4046709363, 15.0000000000, 87.1414482685, 0.5602483511
         410, -2.65746520e-03, 1.98391025e-03, 0.00000000e+00, 0.00000000e+00, 0.00000000e+00, -1.61063196e-03, 1.98391025e-03, -2.65746520e-03, 0.00000000e+00, -1.33950878e+00, 0.00000000e+00, 0.00000000e+00, 6.03484419e+03, 1.76344942e+04, 0.00000000e+00, -4.78022653e+00, -1.52937370e+00, -3.07745416e+00, 1.09108984e+00, 0.00000000e+00, -0.5956939005, 3.4108054184, 15.0000000000, 95.0615377705, 0.5755887667
         420, -2.71834963e-03, 1.95815530e-03, 0.00000000e+00, 0.00000000e+00, 0.00000000e+00, -1.66146214e-03, 1.95815530e-03, -2.71834963e-03, 0.00000000e+00, -1.38821963e+00, 0.00000000e+00, 0.00000000e+00, 5.36854162e+03, 1.76395953e+04, 0.00000000e+00, -4.85793580e+00, -1.59767402e+00, -3.12405289e+00, 1.02525508e+00, 0.00000000e+00, -0.6381864057, 3.3513369543, 14.0000000000, 99.9000000000, 0.5905872583
         430, -2.77358054e-03, 1.93848214e-03, 0.00000000e+00, 0.00000000e+00, 0.00000000e+00, -1.70850890e-03, 1.93848214e-03, -2.77358054e-03, 0.00000000e+00, -1.43080015e+00, 0.00000000e+00, 0.00000000e+00, 4.73897672e+03, 1.76440355e+04, 0.00000000e+00, -4.93666994e+00, -1.66649743e+00, -3.18192024e+00, 9.58536562e-01, 0.00000000e+00, -0.6907582549, 3.3195875629, 14.0000000000, 99.9000000000, 0.6055568218
         440, -2.82286035e-03, 1.92316768e-03, 0.00000000e+00, 0.00000000e+00, 0.00000000e+00, -1.75132188e-03, 1.92316768e-03, -2.82286035e-03, 0.00000000e+00, -1.46781811e+00, 0.00000000e+00, 0.00000000e+00, 4.15327564e+03, 1.76470273e+04, 0.00000000e+00, -5.01697300e+00, -1.73606120e+00, -3.24611672e+00, 8.90835517e-01, 0.00000000e+00, -0.7485330131, 3.2861383033, 14.0000000000, 99.9000000000, 0.6203235904
         450, -2.86655944e-03, 1.91084251e-03, 0.00000000e+00, 0.00000000e+00, 0.00000000e+00, -1.79002334e-03, 1.91084251e-03, -2.86655944e-03, 0.00000000e+00, -1.50015473e+00, 0.00000000e+00, 0.00000000e+00, 3.61141793e+03, 1.76489602e+04, 0.00000000e+00, -5.09920147e+00, -1.80682416e+00, -3.30765904e+00, 8.21922759e-01, 0.00000000e+00, -0.8097663569, 3.2531149226, 14.0000000000, 99.9000000000, 0.6350939910
         460, -2.90508781e-03, 1.90067044e-03, 0.00000000e+00, 0.00000000e+00, 0.00000000e+00, -1.82477655e-03, 1.90067044e-03, -2.90508781e-03, 0.00000000e+00, -1.52845425e+00, 0.00000000e+00, 0.00000000e+00, 3.11236877e+03, 1.76503623e+04, 0.00000000e+00, -5.18452469e+00, -1.87912627e+00, -3.37465726e+00, 7.51225138e-01, 0.00000000e+00, -0.8730005785, 3.2205260163, 13.0000000000, 99.9000000000, 0.6497548819
         470, -2.93890518e-03, 1.89214098e-03, 0.00000000e+00, 0.00000000e+00, 0.00000000e+00, -1.85583600e-03, 1.89214098e-03, -2.93890518e-03, 0.00000000e+00, -1.55321681e+00, 0.00000000e+00, 0.00000000e+00, 2.65443492e+03, 1.76514205e+04, 0.00000000e+00, -5.27198263e+00, -1.95266970e+00, -3.44098591e+00, 6.79391212e-01, 0.00000000e+00, -0.9374498148, 3.1856606130, 13.0000000000, 99.9000000000, 0.6642206430
         480, -2.96841695e-03, 1.88493301e-03, 0.00000000e+00, 0.00000000e+00, 0.00000000e+00, -1.88337511e-03, 1.88493301e-03, -2.96841695e-03, 0.00000000e+00, -1.57481297e+00, 0.00000000e+00, 0.00000000e+00, 2.23547215e+03, 1.76520610e+04, 0.00000000e+00, -5.36125729e+00, -2.02691058e+00, -3.50925223e+00, 6.06745072e-01, 0.00000000e+00, -1.0004959815, 3.1521434068, 12.0000000000, 99.9000000000, 0.6783834418
         490, -2.99412290e-03, 1.87882734e-03, 0.00000000e+00, 0.00000000e+00, 0.00000000e+00, -1.90773986e-03, 1.87882734e-03, -2.99412290e-03, 0.00000000e+00, -1.59361259e+00, 0.00000000e+00, 0.00000000e+00, 1.85339542e+03, 1.76527742e+04, 0.00000000e+00, -5.45174544e+00, -2.10182760e+00, -3.58304090e+00, 5.33528413e-01, 0.00000000e+00, -1.0669907832, 3.1156473905, 12.0000000000, 99.9000000000, 0.6922251463
         500, -3.01640690e-03, 1.87365657e-03, 0.00000000e+00, 0.00000000e+00, 0.00000000e+00, -1.92914592e-03, 1.87365657e-03, -3.01640690e-03, 0.00000000e+00, -1.60990383e+00, 0.00000000e+00, 0.00000000e+00, 1.50579502e+03, 1.76533773e+04, 0.00000000e+00, -5.54113391e+00, -2.17644878e+00, -3.65713587e+00, 4.60740495e-01, 0.00000000e+00, -1.1290562916, 3.0792095355, 12.0000000000, 99.9000000000, 0.7063278357
         510, -3.03569666e-03, 1.86927871e-03, 0.00000000e+00, 0.00000000e+00, 0.00000000e+00, -1.94789705e-03, 1.86927871e-03, -3.03569666e-03, 0.00000000e+00, -1.62399360e+00, 0.00000000e+00, 0.00000000e+00, 1.19062449e+03, 1.76541301e+04, 0.00000000e+00, -5.62941748e+00, -2.25087976e+00, -3.72591908e+00, 3.88260687e-01, 0.00000000e+00, -1.1977159039, 3.0422917059, 12.0000000000, 99.9000000000, 0.7202906728
         520, -3.05239979e-03, 1.86557105e-03, 0.00000000e+00, 0.00000000e+00, 0.00000000e+00, -1.96432652e-03, 1.86557105e-03, -3.05239979e-03, 0.00000000e+00, -1.63617450e+00, 0.00000000e+00, 0.00000000e+00, 9.05662097e+02, 1.76548575e+04, 0.00000000e+00, -5.71600237e+00, -2.32497624e+00, -3.79772341e+00, 3.16151239e-01, 0.00000000e+00, -1.2597610624, 3.0057565466, 12.0000000000, 99.9000000000, 0.7341629465
         530, -3.06684028e-03, 1.86242941e-03, 0.00000000e+00, 0.00000000e+00, 0.00000000e+00, -1.97868879e-03, 1.86242941e-03, -3.06684028e-03, 0.00000000e+00, -1.64668806e+00, 0.00000000e+00, 0.00000000e+00, 6.48620145e+02, 1.76551901e+04, 0.00000000e+00, -5.79995560e+00, -2.39850842e+00, -3.87083455e+00, 2.44630292e-01, 0.00000000e+00, -1.3158778444, 2.9644007952, 12.0000000000, 99.9000000000, 0.7481933951
         540, -3.07933830e-03, 1.85976466e-03, 0.00000000e+00, 0.00000000e+00, 0.00000000e+00, -1.99124957e-03, 1.85976466e-03, -3.07933830e-03, 0.00000000e+00, -1.65576773e+00, 0.00000000e+00, 0.00000000e+00, 4.17399653e+02, 1.76552983e+04, 0.00000000e+00, -5.87955386e+00, -2.47181364e+00, -3.93831021e+00, 1.73597133e-01, 0.00000000e+00, -1.3779181538, 2.9241030500, 12.0000000000, 99.9000000000, 0.7620400389
         550, -3.09018491e-03, 1.85750035e-03, 0.00000000e+00, 0.00000000e+00, 0.00000000e+00, -2.00226015e-03, 1.85750035e-03, -3.09018491e-03, 0.00000000e+00, -1.66362548e+00, 0.00000000e+00, 0.00000000e+00, 2.09902941e+02, 1.76553192e+04, 0.00000000e+00, -5.95505167e+00, -2.54500133e+00, -4.00554527e+00, 1.02773212e-01, 0.00000000e+00, -1.4415818758, 2.8822259223, 12.0000000000, 99.9000000000, 0.7760718465
         560, -3.09961137e-03, 1.85557444e-03, 0.00000000e+00, 0.00000000e+00, 0.00000000e+00, -2.01193248e-03, 1.85557444e-03, -3.09961137e-03, 0.00000000e+00, -1.67043224e+00, 0.00000000e+00, 0.00000000e+00, 2.40367042e+01, 1.76553192e+04, 0.00000000e+00, -6.02644155e+00, -2.61788920e+00, -4.07335840e+00, 3.22721653e-02, 0.00000000e+00, -1.5059042782, 2.8393851888, 12.0000000000, 99.9000000000, 0.7899283171
         570, -3.10779958e-03, 1.85393731e-03, 0.00000000e+00, 0.00000000e+00, 0.00000000e+00, -2.02042297e-03, 1.85393731e-03, -3.10779958e-03, 0.00000000e+00, -1.67632398e+00, 0.00000000e+00, 0.00000000e+00, -1.42235719e+02, 1.76553183e+04, 0.00000000e+00, -6.09358120e+00, -2.69059499e+00, -4.14118555e+00, -3.79564405e-02, 0.00000000e+00, -1.5707958125, 2.7950991777, 12.0000000000, 99.9000000000, 0.8038733562
         580, -3.11489292e-03, 1.85254583e-03, 0.00000000e+00, 0.00000000e+00, 0.00000000e+00, -2.02784179e-03, 1.85254583e-03, -3.11489292e-03, 0.00000000e+00, -1.68141207e+00, 0.00000000e+00, 0.00000000e+00, -2.90729341e+02, 1.76553204e+04, 0.00000000e+00, -6.15652661e+00, -2.76285003e+00, -4.20890229e+00, -1.07719126e-01, 0.00000000e+00, -1.6357806597, 2.7505200470, 12.0000000000, 99.9000000000, 0.8179012934
         590, -3.12103885e-03, 1.85136264e-03, 0.00000000e+00, 0.00000000e+00, 0.00000000e+00, -2.03432501e-03, 1.85136264e-03, -3.12103885e-03, 0.00000000e+00, -1.68580633e+00, 0.00000000e+00, 0.00000000e+00, -4.23066686e+02, 1.76553246e+04, 0.00000000e+00, -6.21572830e+00, -2.83468294e+00, -4.27736998e+00, -1.77089925e-01, 0.00000000e+00, -1.7006786507, 2.7048839701, 12.0000000000, 99.9000000000, 0.8318739613
         600, -3.12636600e-03, 1.85035522e-03, 0.00000000e+00, 0.00000000e+00, 0.00000000e+00, -2.03999257e-03, 1.85035522e-03, -3.12636600e-03, 0.00000000e+00, -1.68960314e+00, 0.00000000e+00, 0.00000000e+00, -5.40780037e+02, 1.76553307e+04, 0.00000000e+00, -6.27166638e+00, -2.90612075e+00, -4.34485762e+00, -2.46085521e-01, 0.00000000e+00, -1.7653676933, 2.6585397064, 12.0000000000, 99.9000000000, 0.8458916187
         610, -3.13098443e-03, 1.84949598e-03, 0.00000000e+00, 0.00000000e+00, 0.00000000e+00, -2.04494765e-03, 1.84949598e-03, -3.13098443e-03, 0.00000000e+00, -1.69288524e+00, 0.00000000e+00, 0.00000000e+00, -6.45308054e+02, 1.76553371e+04, 0.00000000e+00, -6.32508823e+00, -2.97712701e+00, -4.41182730e+00, -3.14673835e-01, 0.00000000e+00, -1.8298951341, 2.6112234312, 12.0000000000, 99.9000000000, 0.8597176472
         620, -3.13498854e-03, 1.84876191e-03, 0.00000000e+00, 0.00000000e+00, 0.00000000e+00, -2.04927847e-03, 1.84876191e-03, -3.13498854e-03, 0.00000000e+00, -1.69572325e+00, 0.00000000e+00, 0.00000000e+00, -7.37978393e+02, 1.76553403e+04, 0.00000000e+00, -6.37659159e+00, -3.04772407e+00, -4.47830775e+00, -3.82899842e-01, 0.00000000e+00, -1.8941031086, 2.5632336495, 12.0000000000, 99.9000000000, 0.8737472375
         630, -3.13846118e-03, 1.84813391e-03, 0.00000000e+00, 0.00000000e+00, 0.00000000e+00, -2.05306440e-03, 1.84813391e-03, -3.13846118e-03, 0.00000000e+00, -1.69817845e+00, 0.00000000e+00, 0.00000000e+00, -8.20009799e+02, 1.76553408e+04, 0.00000000e+00, -6.42687252e+00, -3.11793611e+00, -4.54443108e+00, -4.50812928e-01, 0.00000000e+00, -1.9579844506, 2.5144216386, 12.0000000000, 99.9000000000, 0.8875769615
         640, -3.14147341e-03, 1.84759604e-03, 0.00000000e+00, 0.00000000e+00, 0.00000000e+00, -2.05637404e-03, 1.84759604e-03, -3.14147341e-03, 0.00000000e+00, -1.70030317e+00, 0.00000000e+00, 0.00000000e+00, -8.92517443e+02, 1.76553394e+04, 0.00000000e+00, -6.47639931e+00, -3.18775161e+00, -4.61044436e+00, -5.18404304e-01, 0.00000000e+00, -2.0215841561, 2.4649171752, 12.0000000000, 99.9000000000, 0.9014296532
         650, -3.14408669e-03, 1.84713496e-03, 0.00000000e+00, 0.00000000e+00, 0.00000000e+00, -2.05926735e-03, 1.84713496e-03, -3.14408669e-03, 0.00000000e+00, -1.70214237e+00, 0.00000000e+00, 0.00000000e+00, -9.56516363e+02, 1.76553368e+04, 0.00000000e+00, -6.52560786e+00, -3.25716216e+00, -4.67629334e+00, -5.85683508e-01, 0.00000000e+00, -2.0849431223, 2.4146880991, 12.0000000000, 99.9000000000, 0.9155232588
         660, -3.14635398e-03, 1.84673942e-03, 0.00000000e+00, 0.00000000e+00, 0.00000000e+00, -2.06179637e-03, 1.84673942e-03, -3.14635398e-03, 0.00000000e+00, -1.70373467e+00, 0.00000000e+00, 0.00000000e+00, -1.01292779e+03, 1.76553335e+04, 0.00000000e+00, -6.57480348e+00, -3.32611969e+00, -4.74185325e+00, -6.52609071e-01, 0.00000000e+00, -2.1481345992, 2.3638170757, 12.0000000000, 99.9000000000, 0.9293028116
         670, -3.14832153e-03, 1.84639994e-03, 0.00000000e+00, 0.00000000e+00, 0.00000000e+00, -2.06400729e-03, 1.84639994e-03, -3.14832153e-03, 0.00000000e+00, -1.70511354e+00, 0.00000000e+00, 0.00000000e+00, -1.06258397e+03, 1.76553298e+04, 0.00000000e+00, -6.62427422e+00, -3.39469187e+00, -4.80718229e+00, -7.19261992e-01, 0.00000000e+00, -2.2110646187, 2.3122071249, 12.0000000000, 99.9000000000, 0.9433457812
         680, -3.15002897e-03, 1.84610845e-03, 0.00000000e+00, 0.00000000e+00, 0.00000000e+00, -2.06593984e-03, 1.84610845e-03, -3.15002897e-03, 0.00000000e+00, -1.70630765e+00, 0.00000000e+00, 0.00000000e+00, -1.10623716e+03, 1.76553257e+04, 0.00000000e+00, -6.67420368e+00, -3.46284497e+00, -4.87237968e+00, -7.85617594e-01, 0.00000000e+00, -2.2737467759, 2.2600170883, 12.0000000000, 99.9000000000, 0.9571741462
         690, -3.15151068e-03, 1.84585808e-03, 0.00000000e+00, 0.00000000e+00, 0.00000000e+00, -2.06762882e-03, 1.84585808e-03, -3.15151068e-03, 0.00000000e+00, -1.70734181e+00, 0.00000000e+00, 0.00000000e+00, -1.14456373e+03, 1.76553214e+04, 0.00000000e+00, -6.72469399e+00, -3.53060125e+00, -4.93718069e+00, -8.51697317e-01, 0.00000000e+00, -2.3363256383, 2.2071774105, 12.0000000000, 99.9000000000, 0.9710414290
         700, -3.15279646e-03, 1.84564294e-03, 0.00000000e+00, 0.00000000e+00, 0.00000000e+00, -2.06910466e-03, 1.84564294e-03, -3.15279646e-03, 0.00000000e+00, -1.70823749e+00, 0.00000000e+00, 0.00000000e+00, -1.17817140e+03, 1.76553168e+04, 0.00000000e+00, -6.77586375e+00, -3.59796888e+00, -5.00219448e+00, -9.17529263e-01, 0.00000000e+00, -2.3985599331, 2.1536726559, 12.0000000000, 99.9000000000, 0.9851086696