TITLE = "SU2 Simulation"
VARIABLES = "Iteration","CL","CD","CSF","CMx","CMy","CMz","CFx","CFy","CFz","CL/CD","AoA","Custom_ObjFunc","HeatFlux_Total","HeatFlux_Maximum","Temperature_Total","Res_Flow[0]","Res_Flow[1]","Res_Flow[2]","Res_Flow[3]","Res_Flow[4]","Res_Turb[0]","Res_Turb[1]","Linear_Solver_Iterations","CFL_Number","Time(min)"
ZONE T= "Convergence history"
           0, 1.24720502e-02, 7.18380819e-02, 0.00000000e+00, 0.00000000e+00, 0.00000000e+00, 5.33444431e-03, 7.12770038e-02, 1.53574341e-02, 0.00000000e+00, 1.73613353e-01, 2.31000000e+00, 0.00000000e+00, -2.19431266e+05, 2.13060442e+05, 0.00000000e+00, -1.70011403e+00, -1.08158258e+01, -1.11206832e+01, 3.80541079e+00, 0.00000000e+00, -0.0606992188, 5.7028255745, 2.0000000000, 2.5000000000, 0.0013131499
          10, 1.98551530e-01, 2.29672987e-01, 0.00000000e+00, 0.00000000e+00, 0.00000000e+00, 7.48055133e-02, 2.21483495e-01, 2.07647424e-01, 0.00000000e+00, 8.64496658e-01, 2.31000000e+00, 0.00000000e+00, -6.34187668e+04, 7.58667074e+04, 0.00000000e+00, -2.16801896e+00, 2.68470687e-01, 3.44545677e-01, 3.34137827e+00, 0.00000000e+00, -0.3263334134, 5.1304385955, 6.0000000000, 2.5000000000, 0.0150895516
          20, 1.98660637e-01, 2.19565914e-01, 0.00000000e+00, 0.00000000e+00, 0.00000000e+00, 7.48605672e-02, 2.11380237e-01, 2.07349065e-01, 0.00000000e+00, 9.04788151e-01, 2.31000000e+00, 0.00000000e+00, -4.40287700e+04, 5.15392549e+04, 0.00000000e+00, -2.14112959e+00, 2.37324082e-01, 3.72810674e-01, 3.36417310e+00, 0.00000000e+00, -0.5102584665, 4.8017629768, 5.0000000000, 2.5000000000, 0.0287226836
          30, 1.96373051e-01, 2.03375277e-01, 0.00000000e+00, 0.00000000e+00, 0.00000000e+00, 7.42291752e-02, 1.95294961e-01, 2.04410755e-01, 0.00000000e+00, 9.65569926e-01, 2.31000000e+00, 0.00000000e+00, -3.37137034e+04, 3.80473918e+04, 0.00000000e+00, -2.09117765e+00, 2.69114256e-01, 4.14414302e-01, 3.40389600e+00, 0.00000000e+00, -0.6536585938, 4.5989434871, 5.0000000000, 2.5000000000, 0.0422785322
          40, 1.92585049e-01, 1.81524436e-01, 0.00000000e+00, 0.00000000e+00, 0.00000000e+00, 7.40170583e-02, 1.73614556e-01, 1.99745107e-01, 0.00000000e+00, 1.06093181e+00, 2.31000000e+00, 0.00000000e+00, -2.72642266e+04, 2.91744180e+04, 0.00000000e+00, -2.06632631e+00, 3.01105764e-01, 4.21928940e-01, 3.41949413e+00, 0.00000000e+00, -0.7719147324, 4.4670420081, 5.0000000000, 2.5000000000, 0.0557883223
          50, 1.89710927e-01, 1.58690178e-01, 0.00000000e+00, 0.00000000e+00, 0.00000000e+00, 7.55983459e-02, 1.50914699e-01, 1.95952959e-01, 0.00000000e+00, 1.19547996e+00, 2.31000000e+00, 0.00000000e+00, -2.27531214e+04, 2.32864575e+04, 0.00000000e+00, -2.03921279e+00, 3.55702963e-01, 4.36233576e-01, 3.43884091e+00, 0.00000000e+00, -0.8727382071, 4.3702177148, 6.0000000000, 2.5000000000, 0.0694721858
          60, 1.88756793e-01, 1.38710619e-01, 0.00000000e+00, 0.00000000e+00, 0.00000000e+00, 7.89433102e-02, 1.30989833e-01, 1.94194300e-01, 0.00000000e+00, 1.36079555e+00, 2.31000000e+00, 0.00000000e+00, -1.94061588e+04, 1.91750238e+04, 0.00000000e+00, -2.01151143e+00, 4.00366696e-01, 4.45850655e-01, 3.45790232e+00, 0.00000000e+00, -0.9606290769, 4.2887881597, 6.0000000000, 2.5000000000, 0.0834304452
          70, 1.89878697e-01, 1.23576484e-01, 0.00000000e+00, 0.00000000e+00, 0.00000000e+00, 8.36098942e-02, 1.15822777e-01, 1.94705294e-01, 0.00000000e+00, 1.53652776e+00, 2.31000000e+00, 0.00000000e+00, -1.68126183e+04, 1.61941952e+04, 0.00000000e+00, -1.97883336e+00, 4.29407940e-01, 4.49263671e-01, 3.48224397e+00, 0.00000000e+00, -1.0384280795, 4.1959611298, 5.0000000000, 2.5000000000, 0.0970940073
          80, 1.92402026e-01, 1.13144792e-01, 0.00000000e+00, 0.00000000e+00, 0.00000000e+00, 8.88405727e-02, 1.05297857e-01, 1.96806110e-01, 0.00000000e+00, 1.70049387e+00, 2.31000000e+00, 0.00000000e+00, -1.47084148e+04, 1.41958017e+04, 0.00000000e+00, -1.94009046e+00, 4.55099925e-01, 4.47412692e-01, 3.51561002e+00, 0.00000000e+00, -1.1082067028, 4.1503522585, 5.0000000000, 2.5000000000, 0.1108438094
          90, 1.94497771e-01, 1.06481325e-01, 0.00000000e+00, 0.00000000e+00, 0.00000000e+00, 9.31607066e-02, 9.85553323e-02, 1.98631573e-01, 0.00000000e+00, 1.82659045e+00, 2.31000000e+00, 0.00000000e+00, -1.29107940e+04, 1.28834037e+04, 0.00000000e+00, -1.89484084e+00, 4.90253042e-01, 4.59861443e-01, 3.55805405e+00, 0.00000000e+00, -1.1715154874, 4.1488151848, 5.0000000000, 2.5000000000, 0.1244694312
         100, 1.95510121e-01, 1.02635820e-01, 0.00000000e+00, 0.00000000e+00, 0.00000000e+00, 9.54290061e-02, 9.46721491e-02, 1.99488103e-01, 0.00000000e+00, 1.90489168e+00, 2.31000000e+00, 0.00000000e+00, -1.13101855e+04, 1.18392277e+04, 0.00000000e+00, -1.85291336e+00, 5.29920447e-01, 4.92701886e-01, 3.59892759e+00, 0.00000000e+00, -1.2294357728, 4.1027618467, 5.0000000000, 2.5000000000, 0.1379880389
         110, 1.97639281e-01, 1.01296204e-01, 0.00000000e+00, 0.00000000e+00, 0.00000000e+00, 9.54753984e-02, 9.32478026e-02, 2.01561538e-01, 0.00000000e+00, 1.95110255e+00, 2.31000000e+00, 0.00000000e+00, -9.88554839e+03, 1.08161885e+04, 0.00000000e+00, -1.81644950e+00, 5.65217060e-01, 5.29935537e-01, 3.63490650e+00, 0.00000000e+00, -1.2827863344, 4.0794930023, 5.0000000000, 2.5000000000, 0.1513999104
         120, 2.01727577e-01, 1.02989098e-01, 0.00000000e+00, 0.00000000e+00, 0.00000000e+00, 9.40138111e-02, 9.47745372e-02, 2.05714746e-01, 0.00000000e+00, 1.95872750e+00, 2.31000000e+00, 0.00000000e+00, -8.66666144e+03, 9.89580687e+03, 0.00000000e+00, -1.78325910e+00, 5.96036458e-01, 5.61694460e-01, 3.66615636e+00, 0.00000000e+00, -1.3329138390, 4.0627894882, 5.0000000000, 2.5000000000, 0.1649088701
         130, 2.05159816e-01, 1.07546126e-01, 0.00000000e+00, 0.00000000e+00, 0.00000000e+00, 9.28964700e-02, 9.91895218e-02, 2.09327872e-01, 0.00000000e+00, 1.90764488e+00, 2.31000000e+00, 0.00000000e+00, -7.65244876e+03, 9.22717466e+03, 0.00000000e+00, -1.75485993e+00, 6.19893005e-01, 5.88931441e-01, 3.69106350e+00, 0.00000000e+00, -1.3827802789, 4.0553960084, 5.0000000000, 2.5000000000, 0.1784515460
         140, 2.06985792e-01, 1.12511480e-01, 0.00000000e+00, 0.00000000e+00, 0.00000000e+00, 9.40180445e-02, 1.04077243e-01, 2.11352499e-01, 0.00000000e+00, 1.83968597e+00, 2.31000000e+00, 0.00000000e+00, -6.79724543e+03, 8.71084476e+03, 0.00000000e+00, -1.73112622e+00, 6.21099685e-01, 6.05100961e-01, 3.70821286e+00, 0.00000000e+00, -1.4346599787, 4.0620154749, 5.0000000000, 2.5000000000, 0.1919241309
         150, 2.12292697e-01, 1.14729378e-01, 0.00000000e+00, 0.00000000e+00, 0.00000000e+00, 9.76686026e-02, 1.06079437e-01, 2.16744486e-01, 0.00000000e+00, 1.85037783e+00, 2.31000000e+00, 0.00000000e+00, -6.06168299e+03, 8.21066352e+03, 0.00000000e+00, -1.71093876e+00, 6.18560876e-01, 6.12147248e-01, 3.72307639e+00, 0.00000000e+00, -1.4845592845, 4.0576298348, 5.0000000000, 2.5000000000, 0.2055207531
         160, 2.26906738e-01, 1.13695216e-01, 0.00000000e+00, 0.00000000e+00, 0.00000000e+00, 1.03070558e-01, 1.04457079e-01, 2.31304968e-01, 0.00000000e+00, 1.99574570e+00, 2.31000000e+00, 0.00000000e+00, -5.43799210e+03, 7.68907754e+03, 0.00000000e+00, -1.69335362e+00, 6.42383088e-01, 6.26970666e-01, 3.73843412e+00, 0.00000000e+00, -1.5273514679, 4.0452623859, 5.0000000000, 2.5000000000, 0.2189426303
         170, 2.48321302e-01, 1.10479891e-01, 0.00000000e+00, 0.00000000e+00, 0.00000000e+00, 1.10302534e-01, 1.00381228e-01, 2.52572533e-01, 0.00000000e+00, 2.24766064e+00, 2.31000000e+00, 0.00000000e+00, -4.92528510e+03, 7.25301694e+03, 0.00000000e+00, -1.68413407e+00, 6.27501233e-01, 6.26933707e-01, 3.73820069e+00, 0.00000000e+00, -1.5657140466, 4.0225900681, 5.0000000000, 2.5000000000, 0.2324671070
         180, 2.71137680e-01, 1.05792884e-01, 0.00000000e+00, 0.00000000e+00, 0.00000000e+00, 1.19670545e-01, 9.47783887e-02, 2.75181454e-01, 0.00000000e+00, 2.56291038e+00, 2.31000000e+00, 0.00000000e+00, -4.50885548e+03, 6.89673596e+03, 0.00000000e+00, -1.67821765e+00, 5.82898436e-01, 5.98287723e-01, 3.73282428e+00, 0.00000000e+00, -1.6020238166, 3.9760334556, 5.0000000000, 2.5000000000, 0.2459679087
         190, 2.93787512e-01, 9.99390196e-02, 0.00000000e+00, 0.00000000e+00, 0.00000000e+00, 1.30513240e-01, 8.80163532e-02, 2.97576934e-01, 0.00000000e+00, 2.93966774e+00, 2.31000000e+00, 0.00000000e+00, -4.16603583e+03, 6.55955060e+03, 0.00000000e+00, -1.67329272e+00, 5.58676904e-01, 5.63544239e-01, 3.73161084e+00, 0.00000000e+00, -1.6333604940, 3.9434748542, 5.0000000000, 2.5000000000, 0.2594341000
         200, 3.16534555e-01, 9.32658942e-02, 0.00000000e+00, 0.00000000e+00, 0.00000000e+00, 1.41439519e-01, 8.04318039e-02, 3.20036524e-01, 0.00000000e+00, 3.39389396e+00, 2.31000000e+00, 0.00000000e+00, -3.86454887e+03, 6.27274838e+03, 0.00000000e+00, -1.66887607e+00, 5.55639533e-01, 5.35103529e-01, 3.73343483e+00, 0.00000000e+00, -1.6544552933, 3.9296615957, 5.0000000000, 2.5000000000, 0.2729100188
         210, 3.38650907e-01, 8.61890707e-02, 0.00000000e+00, 0.00000000e+00, 0.00000000e+00, 1.51211233e-01, 7.24693055e-02, 3.41849664e-01, 0.00000000e+00, 3.92916300e+00, 2.31000000e+00, 0.00000000e+00, -3.58177018e+03, 6.13222297e+03, 0.00000000e+00, -1.66563443e+00, 5.59888477e-01, 5.16854931e-01, 3.73555783e+00, 0.00000000e+00, -1.6607833401, 3.9155660788, 5.0000000000, 2.5000000000, 0.2863258123
         220, 3.58446454e-01, 7.92831406e-02, 0.00000000e+00, 0.00000000e+00, 0.00000000e+00, 1.59140934e-01, 6.47711044e-02, 3.61350772e-01, 0.00000000e+00, 4.52109302e+00, 2.31000000e+00, 0.00000000e+00, -3.31178702e+03, 6.13879577e+03, 0.00000000e+00, -1.66226397e+00, 5.68219567e-01, 5.10382785e-01, 3.73822123e+00, 0.00000000e+00, -1.6521809211, 3.9378859061, 5.0000000000, 2.5000000000, 0.2998060505
         230, 3.74296258e-01, 7.33790092e-02, 0.00000000e+00, 0.00000000e+00, 0.00000000e+00, 1.64704765e-01, 5.82329257e-02, 3.76949724e-01, 0.00000000e+00, 5.10086280e+00, 2.31000000e+00, 0.00000000e+00, -3.05727820e+03, 6.16557575e+03, 0.00000000e+00, -1.66115533e+00, 5.75766749e-01, 5.07156353e-01, 3.73895257e+00, 0.00000000e+00, -1.6336609320, 3.9636565689, 5.0000000000, 2.5000000000, 0.3133074601
         240, 3.85344898e-01, 6.89458447e-02, 0.00000000e+00, 0.00000000e+00, 0.00000000e+00, 1.67529941e-01, 5.33580352e-02, 3.87810701e-01, 0.00000000e+00, 5.58909532e+00, 2.31000000e+00, 0.00000000e+00, -2.81921936e+03, 6.08471595e+03, 0.00000000e+00, -1.66122034e+00, 5.70421159e-01, 4.95333538e-01, 3.73719271e+00, 0.00000000e+00, -1.6117279010, 3.9784048764, 5.0000000000, 2.5000000000, 0.3268079042
         250, 3.92655032e-01, 6.55580987e-02, 0.00000000e+00, 0.00000000e+00, 0.00000000e+00, 1.67958744e-01, 4.96783986e-02, 3.94978348e-01, 0.00000000e+00, 5.98942068e+00, 2.31000000e+00, 0.00000000e+00, -2.60172636e+03, 5.90410852e+03, 0.00000000e+00, -1.66097928e+00, 5.49021952e-01, 4.78648159e-01, 3.73542349e+00, 0.00000000e+00, -1.5981698508, 3.9767823386, 5.0000000000, 2.5000000000, 0.3403288802
         260, 3.99273222e-01, 6.23718056e-02, 0.00000000e+00, 0.00000000e+00, 0.00000000e+00, 1.67198852e-01, 4.62279407e-02, 4.01462732e-01, 0.00000000e+00, 6.40150174e+00, 2.31000000e+00, 0.00000000e+00, -2.41214967e+03, 5.71028030e+03, 0.00000000e+00, -1.66178494e+00, 5.23766346e-01, 4.72970025e-01, 3.73361319e+00, 0.00000000e+00, -1.5915620752, 3.9734351385, 5.0000000000, 2.5000000000, 0.3537377199
         270, 4.08532156e-01, 5.89085033e-02, 0.00000000e+00, 0.00000000e+00, 0.00000000e+00, 1.66858876e-01, 4.23942605e-02, 4.10574549e-01, 0.00000000e+00, 6.93502860e+00, 2.31000000e+00, 0.00000000e+00, -2.25332623e+03, 5.53535854e+03, 0.00000000e+00, -1.66334005e+00, 5.01839922e-01, 4.78400591e-01, 3.73138635e+00, 0.00000000e+00, -1.5841777103, 3.9869233559, 5.0000000000, 2.5000000000, 0.3671525002
         280, 4.22493496e-01, 5.51649282e-02, 0.00000000e+00, 0.00000000e+00, 0.00000000e+00, 1.68146818e-01, 3.80909991e-02, 4.24373655e-01, 0.00000000e+00, 7.65873373e+00, 2.31000000e+00, 0.00000000e+00, -2.12869348e+03, 5.36000225e+03, 0.00000000e+00, -1.66461098e+00, 4.86601062e-01, 4.80210931e-01, 3.72944939e+00, 0.00000000e+00, -1.5752010563, 4.0173743060, 5.0000000000, 2.5000000000, 0.3806707501
         290, 4.41366303e-01, 5.12003000e-02, 0.00000000e+00, 0.00000000e+00, 0.00000000e+00, 1.71200400e-01, 3.33689019e-02, 4.43071326e-01, 0.00000000e+00, 8.62038509e+00, 2.31000000e+00, 0.00000000e+00, -2.03900522e+03, 5.25064976e+03, 0.00000000e+00, -1.66502687e+00, 4.88730017e-01, 4.76828056e-01, 3.72921968e+00, 0.00000000e+00, -1.5678585345, 4.0336551574, 5.0000000000, 2.5000000000, 0.3941864649
         300, 4.63474517e-01, 4.69762952e-02, 0.00000000e+00, 0.00000000e+00, 0.00000000e+00, 1.74992368e-01, 2.82572318e-02, 4.64991321e-01, 0.00000000e+00, 9.86613599e+00, 2.31000000e+00, 0.00000000e+00, -1.98102629e+03, 5.25681386e+03, 0.00000000e+00, -1.66284412e+00, 5.05308565e-01, 4.74372435e-01, 3.73301294e+00, 0.00000000e+00, -1.5595536264, 4.0371139973, 5.0000000000, 2.5000000000, 0.4076845884
         310, 4.85906686e-01, 4.25486913e-02, 0.00000000e+00, 0.00000000e+00, 0.00000000e+00, 1.77941785e-01, 2.29290708e-02, 4.87226801e-01, 0.00000000e+00, 1.14200148e+01, 2.31000000e+00, 0.00000000e+00, -1.95771644e+03, 5.33495508e+03, 0.00000000e+00, -1.65948012e+00, 5.20291023e-01, 4.74687270e-01, 3.73881944e+00, 0.00000000e+00, -1.5520062047, 4.0213036629, 5.0000000000, 2.5000000000, 0.4213143508
         320, 5.05721560e-01, 3.82684075e-02, 0.00000000e+00, 0.00000000e+00, 0.00000000e+00, 1.78749452e-01, 1.78536033e-02, 5.06853051e-01, 0.00000000e+00, 1.32151190e+01, 2.31000000e+00, 0.00000000e+00, -1.95667157e+03, 5.40288186e+03, 0.00000000e+00, -1.65518794e+00, 5.25743803e-01, 4.75430020e-01, 3.74520199e+00, 0.00000000e+00, -1.5464257117, 4.0104012590, 5.0000000000, 2.5000000000, 0.4347270608
         330, 5.20834713e-01, 3.47023403e-02, 0.00000000e+00, 0.00000000e+00, 0.00000000e+00, 1.76885791e-01, 1.36812804e-02, 5.21810189e-01, 0.00000000e+00, 1.50086337e+01, 2.31000000e+00, 0.00000000e+00, -1.96952823e+03, 5.47018319e+03, 0.00000000e+00, -1.65012567e+00, 5.26011524e-01, 4.80703511e-01, 3.75106560e+00, 0.00000000e+00, -1.5450802280, 4.0195707085, 5.0000000000, 2.5000000000, 0.4483048518
         340, 5.30305081e-01, 3.23606101e-02, 0.00000000e+00, 0.00000000e+00, 0.00000000e+00, 1.72701250e-01, 1.09597388e-02, 5.31178475e-01, 0.00000000e+00, 1.63873635e+01, 2.31000000e+00, 0.00000000e+00, -1.97745513e+03, 5.50043318e+03, 0.00000000e+00, -1.64721261e+00, 5.28608491e-01, 5.03776006e-01, 3.75267667e+00, 0.00000000e+00, -1.5497180690, 3.9889697520, 5.0000000000, 2.5000000000, 0.4612706701
         350, 5.34339717e-01, 3.13686224e-02, 0.00000000e+00, 0.00000000e+00, 0.00000000e+00, 1.67267308e-01, 9.80593641e-03, 5.35169849e-01, 0.00000000e+00, 1.70342105e+01, 2.31000000e+00, 0.00000000e+00, -1.98104976e+03, 5.49027928e+03, 0.00000000e+00, -1.64750943e+00, 5.36372653e-01, 5.39554361e-01, 3.74939751e+00, 0.00000000e+00, -1.5538548162, 4.0002904528, 5.0000000000, 2.5000000000, 0.4740614613
         360, 5.34438198e-01, 3.13148351e-02, 0.00000000e+00, 0.00000000e+00, 0.00000000e+00, 1.62111711e-01, 9.74822339e-03, 5.35266082e-01, 0.00000000e+00, 1.70666139e+01, 2.31000000e+00, 0.00000000e+00, -1.95104764e+03, 5.42022680e+03, 0.00000000e+00, -1.64544778e+00, 5.45044023e-01, 5.60224390e-01, 3.74916614e+00, 0.00000000e+00, -1.5525610064, 3.9813482077, 5.0000000000, 2.5000000000, 0.4867451906
         370, 5.33360306e-01, 3.14322531e-02, 0.00000000e+00, 0.00000000e+00, 0.00000000e+00, 1.58715844e-01, 9.90899173e-03, 5.34193798e-01, 0.00000000e+00, 1.69685674e+01, 2.31000000e+00, 0.00000000e+00, -1.91209505e+03, 5.27441574e+03, 0.00000000e+00, -1.63601423e+00, 5.44695851e-01, 5.47303118e-01, 3.75853776e+00, 0.00000000e+00, -1.5436576286, 4.0225219318, 5.0000000000, 2.5000000000, 0.4993865530
         380, 5.34355434e-01, 3.09324662e-02, 0.00000000e+00, 0.00000000e+00, 0.00000000e+00, 1.57846263e-01, 9.36950112e-03, 5.35167973e-01, 0.00000000e+00, 1.72749056e+01, 2.31000000e+00, 0.00000000e+00, -1.82376386e+03, 5.13502070e+03, 0.00000000e+00, -1.62164641e+00, 5.32716876e-01, 5.12557999e-01, 3.77403080e+00, 0.00000000e+00, -1.5307827353, 4.0282462448, 5.0000000000, 2.5000000000, 0.5120387475
         390, 5.39818069e-01, 2.94502788e-02, 0.00000000e+00, 0.00000000e+00, 0.00000000e+00, 1.59296375e-01, 7.66834026e-03, 5.40566428e-01, 0.00000000e+00, 1.83298118e+01, 2.31000000e+00, 0.00000000e+00, -1.74230038e+03, 5.04162935e+03, 0.00000000e+00, -1.60890477e+00, 5.26751742e-01, 5.05226789e-01, 3.78839333e+00, 0.00000000e+00, -1.5190097445, 4.0653507055, 6.0000000000, 2.5000000000, 0.5251201153
         400, 5.50377537e-01, 2.71361995e-02, 0.00000000e+00, 0.00000000e+00, 0.00000000e+00, 1.62204438e-01, 4.93052959e-03, 5.51024043e-01, 0.00000000e+00, 2.02820419e+01, 2.31000000e+00, 0.00000000e+00, -1.62242995e+03, 4.91351106e+03, 0.00000000e+00, -1.60044141e+00, 5.43418225e-01, 5.49775556e-01, 3.79863412e+00, 0.00000000e+00, -1.5127168438, 4.0844711075, 6.0000000000, 2.5000000000, 0.5383362611
         410, 5.65090370e-01, 2.44577833e-02, 0.00000000e+00, 0.00000000e+00, 0.00000000e+00, 1.65565557e-01, 1.66127174e-03, 5.65616964e-01, 0.00000000e+00, 2.31047255e+01, 2.31000000e+00, 0.00000000e+00, -1.51869322e+03, 4.85460648e+03, 0.00000000e+00, -1.59431814e+00, 5.67378110e-01, 5.96630161e-01, 3.80510500e+00, 0.00000000e+00, -1.5120607835, 4.0994314000, 6.0000000000, 2.5000000000, 0.5514407992
         420, 5.82009563e-01, 2.19677416e-02, 0.00000000e+00, 0.00000000e+00, 0.00000000e+00, 1.68520128e-01, -1.50869462e-03, 5.82422044e-01, 0.00000000e+00, 2.64938278e+01, 2.31000000e+00, 0.00000000e+00, -1.43269272e+03, 4.66626536e+03, 0.00000000e+00, -1.58750909e+00, 5.79954921e-01, 6.03398966e-01, 3.81023433e+00, 0.00000000e+00, -1.5153115873, 4.0860410200, 6.0000000000, 2.5000000000, 0.5647042910
         430, 5.99427056e-01, 1.99593709e-02, 0.00000000e+00, 0.00000000e+00, 0.00000000e+00, 1.70508099e-01, -4.21746592e-03, 5.99744433e-01, 0.00000000e+00, 3.00323622e+01, 2.31000000e+00, 0.00000000e+00, -1.36615315e+03, 4.61945091e+03, 0.00000000e+00, -1.57824846e+00, 5.93733077e-01, 5.65342414e-01, 3.81869411e+00, 0.00000000e+00, -1.5243210506, 4.1218680343, 6.0000000000, 2.5000000000, 0.5779246767
         440, 6.15906172e-01, 1.85683507e-02, 0.00000000e+00, 0.00000000e+00, 0.00000000e+00, 1.71204629e-01, -6.27156598e-03, 6.16154090e-01, 0.00000000e+00, 3.31696757e+01, 2.31000000e+00, 0.00000000e+00, -1.35311233e+03, 4.63746430e+03, 0.00000000e+00, -1.56782976e+00, 6.29411853e-01, 5.20988228e-01, 3.83198855e+00, 0.00000000e+00, -1.5322406147, 4.1193797060, 6.0000000000, 2.5000000000, 0.5913866083
         450, 6.30732488e-01, 1.77279379e-02, 0.00000000e+00, 0.00000000e+00, 0.00000000e+00, 1.70489066e-01, -7.70888817e-03, 6.30934485e-01, 0.00000000e+00, 3.55784465e+01, 2.31000000e+00, 0.00000000e+00, -1.32451219e+03, 4.85736751e+03, 0.00000000e+00, -1.55944104e+00, 6.68989997e-01, 5.35432062e-01, 3.84435304e+00, 0.00000000e+00, -1.5414167042, 4.1451625240, 6.0000000000, 2.5000000000, 0.6046182354
         460, 6.43374884e-01, 1.73198672e-02, 0.00000000e+00, 0.00000000e+00, 0.00000000e+00, 1.68263712e-01, -8.62619391e-03, 6.43550159e-01, 0.00000000e+00, 3.71466406e+01, 2.31000000e+00, 0.00000000e+00, -1.33853582e+03, 4.65100906e+03, 0.00000000e+00, -1.55462556e+00, 6.78662365e-01, 5.88936201e-01, 3.84900550e+00, 0.00000000e+00, -1.5517083896, 4.1603898997, 5.0000000000, 2.5000000000, 0.6173916698
         470, 6.53930746e-01, 1.73145284e-02, 0.00000000e+00, 0.00000000e+00, 0.00000000e+00, 1.64701611e-01, -9.05699493e-03, 6.54097228e-01, 0.00000000e+00, 3.77677480e+01, 2.31000000e+00, 0.00000000e+00, -1.34188767e+03, 4.79433074e+03, 0.00000000e+00, -1.55149450e+00, 6.44444843e-01, 6.20231087e-01, 3.84657852e+00, 0.00000000e+00, -1.5632064631, 4.1236324315, 5.0000000000, 2.5000000000, 0.6301683108
         480, 6.62565830e-01, 1.76393007e-02, 0.00000000e+00, 0.00000000e+00, 0.00000000e+00, 1.60046006e-01, -9.08053382e-03, 6.62738386e-01, 0.00000000e+00, 3.75619102e+01, 2.31000000e+00, 0.00000000e+00, -1.34469226e+03, 4.43249350e+03, 0.00000000e+00, -1.54692216e+00, 5.76959279e-01, 6.13801098e-01, 3.84418405e+00, 0.00000000e+00, -1.5711828530, 4.1748794669, 5.0000000000, 2.5000000000, 0.6429370046
         490, 6.69390064e-01, 1.81477184e-02, 0.00000000e+00, 0.00000000e+00, 0.00000000e+00, 1.54685306e-01, -8.84758808e-03, 6.69577566e-01, 0.00000000e+00, 3.68856320e+01, 2.31000000e+00, 0.00000000e+00, -1.34830052e+03, 4.19265746e+03, 0.00000000e+00, -1.53955957e+00, 5.12931807e-01, 5.85325391e-01, 3.84772327e+00, 0.00000000e+00, -1.5706577206, 4.1130999711, 5.0000000000, 2.5000000000, 0.6557857156
         500, 6.75042149e-01, 1.87268470e-02, 0.00000000e+00, 0.00000000e+00, 0.00000000e+00, 1.49286358e-01, -8.49674417e-03, 6.75248401e-01, 0.00000000e+00, 3.60467595e+01, 2.31000000e+00, 0.00000000e+00, -1.36048395e+03, 4.03627545e+03, 0.00000000e+00, -1.53062575e+00, 4.92944044e-01, 5.63503910e-01, 3.85649690e+00, 0.00000000e+00, -1.5618876987, 4.1535788408, 5.0000000000, 2.5000000000, 0.6684441328
         510, 6.80186459e-01, 1.92045580e-02, 0.00000000e+00, 0.00000000e+00, 0.00000000e+00, 1.44452857e-01, -8.22676885e-03, 6.80407785e-01, 0.00000000e+00, 3.54179700e+01, 2.31000000e+00, 0.00000000e+00, -1.38104810e+03, 3.74225315e+03, 0.00000000e+00, -1.52207266e+00, 5.07848280e-01, 5.66009197e-01, 3.86599829e+00, 0.00000000e+00, -1.5474295197, 4.1160666168, 5.0000000000, 2.5000000000, 0.6812352180
         520, 6.85313964e-01, 1.94510119e-02, 0.00000000e+00, 0.00000000e+00, 0.00000000e+00, 1.40514586e-01, -8.18718537e-03, 6.85541057e-01, 0.00000000e+00, 3.52328181e+01, 2.31000000e+00, 0.00000000e+00, -1.37723964e+03, 3.78527268e+03, 0.00000000e+00, -1.51469546e+00, 5.26321853e-01, 5.84174885e-01, 3.87340242e+00, 0.00000000e+00, -1.5327502485, 4.1352792947, 5.0000000000, 2.5000000000, 0.6939944386
         530, 6.91009329e-01, 1.95154403e-02, 0.00000000e+00, 0.00000000e+00, 0.00000000e+00, 1.37553895e-01, -8.35236771e-03, 6.91234391e-01, 0.00000000e+00, 3.54083391e+01, 2.31000000e+00, 0.00000000e+00, -1.38258858e+03, 3.54186957e+03, 0.00000000e+00, -1.50781982e+00, 5.38358831e-01, 6.03678973e-01, 3.87924811e+00, 0.00000000e+00, -1.5216771361, 4.0831893026, 5.0000000000, 2.5000000000, 0.7067684134
         540, 6.97056016e-01, 1.94522225e-02, 0.00000000e+00, 0.00000000e+00, 0.00000000e+00, 1.35183988e-01, -8.65925304e-03, 6.97273616e-01, 0.00000000e+00, 3.58342609e+01, 2.31000000e+00, 0.00000000e+00, -1.37007197e+03, 3.53026278e+03, 0.00000000e+00, -1.50041063e+00, 5.47519349e-01, 6.21208134e-01, 3.88540855e+00, 0.00000000e+00, -1.5167306458, 4.0971625289, 5.0000000000, 2.5000000000, 0.7194701950
         550, 7.02826719e-01, 1.93692511e-02, 0.00000000e+00, 0.00000000e+00, 0.00000000e+00, 1.32870415e-01, -8.97475203e-03, 7.03036286e-01, 0.00000000e+00, 3.62856940e+01, 2.31000000e+00, 0.00000000e+00, -1.34943424e+03, 3.46485918e+03, 0.00000000e+00, -1.49229311e+00, 5.57202724e-01, 6.40385948e-01, 3.89252129e+00, 0.00000000e+00, -1.5168601605, 4.0784177548, 5.0000000000, 2.5000000000, 0.7322305679
         560, 7.07806216e-01, 1.93974908e-02, 0.00000000e+00, 0.00000000e+00, 0.00000000e+00, 1.30209772e-01, -9.14723978e-03, 7.08012874e-01, 0.00000000e+00, 3.64895760e+01, 2.31000000e+00, 0.00000000e+00, -1.30762087e+03, 3.43177075e+03, 0.00000000e+00, -1.48412373e+00, 5.66801951e-01, 6.62665617e-01, 3.89979538e+00, 0.00000000e+00, -1.5137119494, 4.0584917632, 5.0000000000, 2.5000000000, 0.7450011532
         570, 7.11794742e-01, 1.96549604e-02, 0.00000000e+00, 0.00000000e+00, 0.00000000e+00, 1.27048442e-01, -9.05074172e-03, 7.12008536e-01, 0.00000000e+00, 3.62145091e+01, 2.31000000e+00, 0.00000000e+00, -1.27169091e+03, 3.45446583e+03, 0.00000000e+00, -1.47669991e+00, 5.77029499e-01, 6.85356574e-01, 3.90633772e+00, 0.00000000e+00, -1.5013582258, 4.0379859975, 5.0000000000, 2.5000000000, 0.7578000029
         580, 7.14635775e-01, 2.01426024e-02, 0.00000000e+00, 0.00000000e+00, 0.00000000e+00, 1.23379005e-01, -8.67800719e-03, 7.14866916e-01, 0.00000000e+00, 3.54788205e+01, 2.31000000e+00, 0.00000000e+00, -1.23466455e+03, 3.45668797e+03, 0.00000000e+00, -1.47057831e+00, 5.91575404e-01, 7.05842696e-01, 3.91190666e+00, 0.00000000e+00, -1.4779563317, 4.0256596106, 5.0000000000, 2.5000000000, 0.7706170917
         590, 7.16238843e-01, 2.07736957e-02, 0.00000000e+00, 0.00000000e+00, 0.00000000e+00, 1.19262343e-01, -8.11204029e-03, 7.16494119e-01, 0.00000000e+00, 3.44781619e+01, 2.31000000e+00, 0.00000000e+00, -1.20238553e+03, 3.49141154e+03, 0.00000000e+00, -1.46610462e+00, 6.14281915e-01, 7.24722973e-01, 3.91674594e+00, 0.00000000e+00, -1.4465669736, 4.0135511123, 5.0000000000, 2.5000000000, 0.7833142519
         600, 7.16714540e-01, 2.14746100e-02, 0.00000000e+00, 0.00000000e+00, 0.00000000e+00, 1.14822961e-01, -7.43086910e-03, 7.16997680e-01, 0.00000000e+00, 3.33749735e+01, 2.31000000e+00, 0.00000000e+00, -1.17142656e+03, 3.51844674e+03, 0.00000000e+00, -1.46367570e+00, 6.44923217e-01, 7.44129142e-01, 3.92105602e+00, 0.00000000e+00, -1.4084441056, 3.9916631252, 5.0000000000, 2.5000000000, 0.7960975329
         610, 7.16171982e-01, 2.21756468e-02, 0.00000000e+00, 0.00000000e+00, 0.00000000e+00, 1.10145494e-01, -6.70853351e-03, 7.16483819e-01, 0.00000000e+00, 3.22954270e+01, 2.31000000e+00, 0.00000000e+00, -1.15201513e+03, 3.53766841e+03, 0.00000000e+00, -1.46444791e+00, 6.78993885e-01, 7.62952250e-01, 3.92409375e+00, 0.00000000e+00, -1.3640903643, 3.9714345841, 5.0000000000, 2.5000000000, 0.8088594755
         620, 7.14520075e-01, 2.28383699e-02, 0.00000000e+00, 0.00000000e+00, 0.00000000e+00, 1.05287178e-01, -5.97976694e-03, 7.14859966e-01, 0.00000000e+00, 3.12859490e+01, 2.31000000e+00, 0.00000000e+00, -1.14764652e+03, 3.56524262e+03, 0.00000000e+00, -1.47113687e+00, 7.09845557e-01, 7.74203857e-01, 3.92324716e+00, 0.00000000e+00, -1.3146071618, 3.9404104830, 5.0000000000, 2.5000000000, 0.8216635784
         630, 7.11954742e-01, 2.35033538e-02, 0.00000000e+00, 0.00000000e+00, 0.00000000e+00, 1.00497423e-01, -5.21192460e-03, 7.12323521e-01, 0.00000000e+00, 3.02916234e+01, 2.31000000e+00, 0.00000000e+00, -1.13680543e+03, 3.60142491e+03, 0.00000000e+00, -1.48772408e+00, 7.31408638e-01, 7.67790851e-01, 3.91432226e+00, 0.00000000e+00, -1.2602414837, 3.9333688051, 5.0000000000, 2.5000000000, 0.8343290726
         640, 7.09124409e-01, 2.42956800e-02, 0.00000000e+00, 0.00000000e+00, 0.00000000e+00, 9.62450359e-02, -4.30616233e-03, 7.09527424e-01, 0.00000000e+00, 2.91872633e+01, 2.31000000e+00, 0.00000000e+00, -1.12589939e+03, 3.65059790e+03, 0.00000000e+00, -1.51781470e+00, 7.39468917e-01, 7.34834766e-01, 3.89316850e+00, 0.00000000e+00, -1.2036484230, 3.9094270080, 5.0000000000, 2.5000000000, 0.8471114357
         650, 7.06930575e-01, 2.53251064e-02, 0.00000000e+00, 0.00000000e+00, 0.00000000e+00, 9.30749512e-02, -3.18914743e-03, 7.07376865e-01, 0.00000000e+00, 2.79142194e+01, 2.31000000e+00, 0.00000000e+00, -1.11278396e+03, 3.70964629e+03, 0.00000000e+00, -1.56258137e+00, 7.31811975e-01, 6.70597013e-01, 3.85738884e+00, 0.00000000e+00, -1.1472466529, 3.8893779323, 5.0000000000, 2.5000000000, 0.8598447124
         660, 7.06129913e-01, 2.65833184e-02, 0.00000000e+00, 0.00000000e+00, 0.00000000e+00, 9.13975485e-02, -1.89968625e-03, 7.06627567e-01, 0.00000000e+00, 2.65628957e+01, 2.31000000e+00, 0.00000000e+00, -1.09967103e+03, 3.77157384e+03, 0.00000000e+00, -1.61884867e+00, 7.07943255e-01, 5.79644106e-01, 3.80749929e+00, 0.00000000e+00, -1.0998955262, 3.8664844822, 5.0000000000, 2.5000000000, 0.8726400574
         670, 7.07263349e-01, 2.79205066e-02, 0.00000000e+00, 0.00000000e+00, 0.00000000e+00, 9.13970934e-02, -6.09269156e-04, 7.07813978e-01, 0.00000000e+00, 2.53313222e+01, 2.31000000e+00, 0.00000000e+00, -1.07257547e+03, 3.82514658e+03, 0.00000000e+00, -1.67724222e+00, 6.69317901e-01, 4.91582264e-01, 3.74839824e+00, 0.00000000e+00, -1.0586043264, 3.8474951721, 5.0000000000, 2.5000000000, 0.8858974854
         680, 7.10315471e-01, 2.90716075e-02, 0.00000000e+00, 0.00000000e+00, 0.00000000e+00, 9.28878621e-02, 4.17876933e-04, 7.10910017e-01, 0.00000000e+00, 2.44333056e+01, 2.31000000e+00, 0.00000000e+00, -1.03638253e+03, 3.85920590e+03, 0.00000000e+00, -1.72334555e+00, 6.20475935e-01, 4.64258860e-01, 3.69111129e+00, 0.00000000e+00, -1.0237591741, 3.8435497512, 5.0000000000, 2.5000000000, 0.8993143360
         690, 7.14884721e-01, 2.97866102e-02, 0.00000000e+00, 0.00000000e+00, 0.00000000e+00, 9.54018363e-02, 9.48129630e-04, 7.15504373e-01, 0.00000000e+00, 2.40002040e+01, 2.31000000e+00, 0.00000000e+00, -9.92769419e+02, 3.87031176e+03, 0.00000000e+00, -1.74795435e+00, 5.70090553e-01, 5.02275113e-01, 3.64961980e+00, 0.00000000e+00, -0.9940979994, 3.8148688842, 5.0000000000, 2.5000000000, 0.9120920102
         700, 7.20001012e-01, 2.98916727e-02, 0.00000000e+00, 0.00000000e+00, 0.00000000e+00, 9.82301550e-02, 8.46888558e-04, 7.20620741e-01, 0.00000000e+00, 2.40870098e+01, 2.31000000e+00, 0.00000000e+00, -9.47006714e+02, 3.86439871e+03, 0.00000000e+00, -1.75790911e+00, 5.28585556e-01, 5.49683025e-01, 3.62821120e+00, 0.00000000e+00, -0.9703808828, 3.7835018619, 5.0000000000, 2.5000000000, 0.9277037978
         710, 7.24288538e-01, 2.93510592e-02, 0.00000000e+00, 0.00000000e+00, 0.00000000e+00, 1.00552292e-01, 1.33900521e-04, 7.24882993e-01, 0.00000000e+00, 2.46767428e+01, 2.31000000e+00, 0.00000000e+00, -9.02974765e+02, 3.85274975e+03, 0.00000000e+00, -1.76975548e+00, 5.00051554e-01, 5.74012838e-01, 3.61463140e+00, 0.00000000e+00, -0.9492488024, 3.7726745613, 5.0000000000, 2.5000000000, 0.9404958884