TITLE = "SU2 Simulation"
VARIABLES = "Iteration","CL","CD","CSF","CMx","CMy","CMz","CFx","CFy","CFz","CL/CD","AoA","Custom_ObjFunc","HeatFlux_Total","HeatFlux_Maximum","Temperature_Total","Res_Flow[0]","Res_Flow[1]","Res_Flow[2]","Res_Flow[3]","Res_Flow[4]"," Res_Turb[0]"," Res_Turb[1]"," Res_Turb[2]"," Res_Turb[3]","Linear_Solver_Iterations","CFL_Number","Time(min)"
ZONE T= "Convergence history"
           0, -4.00000039e-01, 2.01249574e-01, 0.00000000e+00, 0.00000000e+00, 0.00000000e+00, -3.00000136e-01, 2.01249574e-01, -4.00000039e-01, 0.00000000e+00, -1.98758204e+00, 0.00000000e+00, 0.00000000e+00, -8.74672963e+04, 7.87986306e+04, 0.00000000e+00, -2.26369284e+00, 6.52141827e-02, 1.21914533e-01, 3.20528024e+00, 0.00000000e+00, 2.6670671990, 6.8511105219, 1.9409554176, 8.2660433588, 8.0000000000, 10.0000000000, 0.0018093308
          10, -2.53551123e-02, 8.40405783e-02, 0.00000000e+00, 0.00000000e+00, 0.00000000e+00, -4.30299817e-02, 8.40405783e-02, -2.53551123e-02, 0.00000000e+00, -3.01700831e-01, 0.00000000e+00, 0.00000000e+00, -6.41381745e+03, 5.78084911e+03, 0.00000000e+00, -3.11609128e+00, -4.70961037e-01, -7.30781242e-01, 2.36578877e+00, 0.00000000e+00, 0.4860023936, 6.9632062064, 0.1110528411, 6.2521106597, 10.0000000000, 25.1848336635, 0.0195135037
          20, -3.44178584e-01, 5.01570489e-02, 0.00000000e+00, 0.00000000e+00, 0.00000000e+00, -2.48864265e-01, 5.01570489e-02, -3.44178584e-01, 0.00000000e+00, -6.86201823e+00, 0.00000000e+00, 0.00000000e+00, -2.54287238e+03, 2.29285706e+03, 0.00000000e+00, -3.45965897e+00, -7.84376219e-01, -7.52663354e-01, 2.02236332e+00, 0.00000000e+00, -0.2626884999, 5.8847617423, -0.6090880553, 5.3923874289, 10.0000000000, 38.7077874541, 0.0376060168
          30, -1.61855404e-01, 3.70911034e-02, 0.00000000e+00, 0.00000000e+00, 0.00000000e+00, -7.86901454e-02, 3.70911034e-02, -1.61855404e-01, 0.00000000e+00, -4.36372577e+00, 0.00000000e+00, 0.00000000e+00, -1.40854549e+03, 1.28142807e+03, 0.00000000e+00, -3.54270348e+00, -8.70471053e-01, -1.19959337e+00, 1.94423571e+00, 0.00000000e+00, -0.7324788683, 5.1972495545, -0.9509023306, 4.6276108262, 10.0000000000, 40.0382361223, 0.0566966772
          40, -1.33842653e-01, 2.98987630e-02, 0.00000000e+00, 0.00000000e+00, 0.00000000e+00, -1.41675971e-01, 2.98987630e-02, -1.33842653e-01, 0.00000000e+00, -4.47652811e+00, 0.00000000e+00, 0.00000000e+00, -9.20669174e+02, 8.27172494e+02, 0.00000000e+00, -3.67718539e+00, -1.05942741e+00, -1.06762106e+00, 1.78029461e+00, 0.00000000e+00, -1.0173027096, 4.7341312206, -1.2747267409, 4.2820029622, 10.0000000000, 46.6654000364, 0.0773740649
          50, -2.20650730e-01, 2.48030117e-02, 0.00000000e+00, 0.00000000e+00, 0.00000000e+00, -1.46067923e-01, 2.48030117e-02, -2.20650730e-01, 0.00000000e+00, -8.89612654e+00, 0.00000000e+00, 0.00000000e+00, -6.40434381e+02, 5.82243370e+02, 0.00000000e+00, -3.90303205e+00, -1.23386528e+00, -1.26517155e+00, 1.57515115e+00, 0.00000000e+00, -1.2458360978, 4.3427984893, -1.5317559159, 3.7948644329, 10.0000000000, 60.9667514777, 0.0969837268
          60, -1.68746481e-01, 2.08125250e-02, 0.00000000e+00, 0.00000000e+00, 0.00000000e+00, -1.34949258e-01, 2.08125250e-02, -1.68746481e-01, 0.00000000e+00, -8.10792931e+00, 0.00000000e+00, 0.00000000e+00, -4.45592251e+02, 4.09305977e+02, 0.00000000e+00, -4.15740177e+00, -1.33713568e+00, -1.59128938e+00, 1.29620327e+00, 0.00000000e+00, -1.4537836308, 3.9812486729, -1.7515816899, 3.8686264408, 10.0000000000, 79.4573138834, 0.1196423133
          70, -1.92982231e-01, 1.76764560e-02, 0.00000000e+00, 0.00000000e+00, 0.00000000e+00, -1.40701791e-01, 1.76764560e-02, -1.92982231e-01, 0.00000000e+00, -1.09174730e+01, 0.00000000e+00, 0.00000000e+00, -3.21100063e+02, 3.05070711e+02, 0.00000000e+00, -4.37821066e+00, -1.45866338e+00, -1.74976734e+00, 1.09785100e+00, 0.00000000e+00, -1.6119602653, 3.6384590817, -1.9576288066, 3.3630602592, 10.0000000000, 97.2816398403, 0.1397590319
          80, -1.85510754e-01, 1.50523720e-02, 0.00000000e+00, 0.00000000e+00, 0.00000000e+00, -1.40056304e-01, 1.50523720e-02, -1.85510754e-01, 0.00000000e+00, -1.23243535e+01, 0.00000000e+00, 0.00000000e+00, -2.30599848e+02, 2.36826661e+02, 0.00000000e+00, -4.56885949e+00, -1.55226664e+00, -2.07381885e+00, 9.15170023e-01, 0.00000000e+00, -1.7753500595, 3.2996457817, -2.1220711848, 3.1848825124, 10.0000000000, 115.4591072908, 0.1592934887
          90, -1.86613122e-01, 1.26001739e-02, 0.00000000e+00, 0.00000000e+00, 0.00000000e+00, -1.40118008e-01, 1.26001739e-02, -1.86613122e-01, 0.00000000e+00, -1.48103609e+01, 0.00000000e+00, 0.00000000e+00, -1.60202462e+02, 1.97575398e+02, 0.00000000e+00, -4.96858121e+00, -1.66253450e+00, -2.34622015e+00, 5.00990319e-01, 0.00000000e+00, -1.9816594871, 2.9321951718, -2.2531571648, 2.9543401477, 10.0000000000, 181.2754388665, 0.1785102685
         100, -1.87019117e-01, 1.04645500e-02, 0.00000000e+00, 0.00000000e+00, 0.00000000e+00, -1.40304950e-01, 1.04645500e-02, -1.87019117e-01, 0.00000000e+00, -1.78716827e+01, 0.00000000e+00, 0.00000000e+00, -1.08916778e+02, 1.78091142e+02, 0.00000000e+00, -5.18063533e+00, -1.76304090e+00, -2.63307324e+00, 2.82333961e-01, 0.00000000e+00, -2.1720014903, 2.5412368870, -2.3586943768, 2.9083033317, 10.0000000000, 226.7127027660, 0.1971131365
         110, -1.87234509e-01, 8.71547731e-03, 0.00000000e+00, 0.00000000e+00, 0.00000000e+00, -1.40463350e-01, 8.71547731e-03, -1.87234509e-01, 0.00000000e+00, -2.14829897e+01, 0.00000000e+00, 0.00000000e+00, -7.45258551e+01, 1.69594811e+02, 0.00000000e+00, -5.33707606e+00, -1.85979800e+00, -2.84219095e+00, 1.26766433e-01, 0.00000000e+00, -2.3127653354, 2.1671794413, -2.4634643320, 2.7036377669, 10.0000000000, 272.5282726691, 0.2155550083
         120, -1.87331221e-01, 7.34940635e-03, 0.00000000e+00, 0.00000000e+00, 0.00000000e+00, -1.40548467e-01, 7.34940635e-03, -1.87331221e-01, 0.00000000e+00, -2.54892997e+01, 0.00000000e+00, 0.00000000e+00, -5.23470991e+01, 1.63994422e+02, 0.00000000e+00, -5.47202930e+00, -1.94858459e+00, -3.01375550e+00, -6.00871863e-03, 0.00000000e+00, -2.4391778408, 1.8489611204, -2.5801068654, 2.2834384827, 10.0000000000, 299.7000000000, 0.2341033459
         130, -1.87340074e-01, 6.36700705e-03, 0.00000000e+00, 0.00000000e+00, 0.00000000e+00, -1.40576809e-01, 6.36700705e-03, -1.87340074e-01, 0.00000000e+00, -2.94235695e+01, 0.00000000e+00, 0.00000000e+00, -3.89477864e+01, 1.59260659e+02, 0.00000000e+00, -5.59523609e+00, -2.02256345e+00, -3.17588574e+00, -1.28906935e-01, 0.00000000e+00, -2.5517538853, 1.6170895830, -2.6995473739, 2.4642507020, 10.0000000000, 299.7000000000, 0.2522023519
         140, -1.87398253e-01, 5.63229105e-03, 0.00000000e+00, 0.00000000e+00, 0.00000000e+00, -1.40625397e-01, 5.63229105e-03, -1.87398253e-01, 0.00000000e+00, -3.32721181e+01, 0.00000000e+00, 0.00000000e+00, -3.03114532e+01, 1.55790356e+02, 0.00000000e+00, -5.69240669e+00, -2.08482547e+00, -3.32405996e+00, -2.25959447e-01, 0.00000000e+00, -2.6418937836, 1.4427262205, -2.8209803980, 2.6575160507, 10.0000000000, 299.7000000000, 0.2707352599
         150, -1.87391244e-01, 5.05907612e-03, 0.00000000e+00, 0.00000000e+00, 0.00000000e+00, -1.40635472e-01, 5.05907612e-03, -1.87391244e-01, 0.00000000e+00, -3.70406057e+01, 0.00000000e+00, 0.00000000e+00, -2.43558972e+01, 1.51573267e+02, 0.00000000e+00, -5.77091777e+00, -2.13868814e+00, -3.46274034e+00, -3.04606176e-01, 0.00000000e+00, -2.7156550289, 3.1196226908, -2.9440734239, 2.1755972919, 10.0000000000, 299.7000000000, 0.2903822422
         160, -1.87406369e-01, 4.59783121e-03, 0.00000000e+00, 0.00000000e+00, 0.00000000e+00, -1.40654234e-01, 4.59783121e-03, -1.87406369e-01, 0.00000000e+00, -4.07597322e+01, 0.00000000e+00, 0.00000000e+00, -2.00461774e+01, 1.44593371e+02, 0.00000000e+00, -5.83683985e+00, -2.18623158e+00, -3.59154110e+00, -3.70319595e-01, 0.00000000e+00, -2.8449047889, 1.4120120828, -3.0678579454, 1.9851684966, 10.0000000000, 299.7000000000, 0.3112864574
         170, -1.87410092e-01, 4.21790134e-03, 0.00000000e+00, 0.00000000e+00, 0.00000000e+00, -1.40665827e-01, 4.21790134e-03, -1.87410092e-01, 0.00000000e+00, -4.44320711e+01, 0.00000000e+00, 0.00000000e+00, -1.68253520e+01, 1.41324851e+02, 0.00000000e+00, -5.89608669e+00, -2.22880317e+00, -3.71745613e+00, -4.29225619e-01, 0.00000000e+00, -2.9391529999, 1.9270365972, -3.1905986548, 2.1625627106, 10.0000000000, 299.7000000000, 0.3295228601
         180, -1.87405692e-01, 3.89897647e-03, 0.00000000e+00, 0.00000000e+00, 0.00000000e+00, -1.40670687e-01, 3.89897647e-03, -1.87405692e-01, 0.00000000e+00, -4.80653560e+01, 0.00000000e+00, 0.00000000e+00, -1.43498366e+01, 1.39861892e+02, 0.00000000e+00, -5.94927806e+00, -2.26738840e+00, -3.85592708e+00, -4.82125713e-01, 0.00000000e+00, -3.0264339159, 2.2762046548, -3.3106782967, 1.8432933960, 10.0000000000, 299.7000000000, 0.3479217291
         190, -1.87409773e-01, 3.62708152e-03, 0.00000000e+00, 0.00000000e+00, 0.00000000e+00, -1.40680056e-01, 3.62708152e-03, -1.87409773e-01, 0.00000000e+00, -5.16695785e+01, 0.00000000e+00, 0.00000000e+00, -1.24018068e+01, 1.38407631e+02, 0.00000000e+00, -5.99453583e+00, -2.30267751e+00, -3.98117091e+00, -5.26720362e-01, 0.00000000e+00, -3.1092963416, 1.5885846595, -3.4263827041, 1.8394133464, 10.0000000000, 299.7000000000, 0.3663434823
         200, -1.87402868e-01, 3.39232538e-03, 0.00000000e+00, 0.00000000e+00, 0.00000000e+00, -1.40682070e-01, 3.39232538e-03, -1.87402868e-01, 0.00000000e+00, -5.52431879e+01, 0.00000000e+00, 0.00000000e+00, -1.08383847e+01, 1.36152786e+02, 0.00000000e+00, -6.03526310e+00, -2.33520647e+00, -4.11967143e+00, -5.66869058e-01, 0.00000000e+00, -3.1841920638, 1.9019519403, -3.5365262503, 1.9339530466, 10.0000000000, 299.7000000000, 0.3859157761
         210, -1.87402252e-01, 3.18745087e-03, 0.00000000e+00, 0.00000000e+00, 0.00000000e+00, -1.40687152e-01, 3.18745087e-03, -1.87402252e-01, 0.00000000e+00, -5.87937695e+01, 0.00000000e+00, 0.00000000e+00, -9.56374858e+00, 1.33433076e+02, 0.00000000e+00, -6.07070078e+00, -2.36538828e+00, -4.23274884e+00, -6.01448166e-01, 0.00000000e+00, -3.2486381005, 1.8273778259, -3.6397281480, 1.6474739538, 10.0000000000, 299.7000000000, 0.4043255965
         220, -1.87396974e-01, 3.00701058e-03, 0.00000000e+00, 0.00000000e+00, 0.00000000e+00, -1.40689078e-01, 3.00701058e-03, -1.87396974e-01, 0.00000000e+00, -6.23200249e+01, 0.00000000e+00, 0.00000000e+00, -8.51137805e+00, 1.30846367e+02, 0.00000000e+00, -6.10352260e+00, -2.39354255e+00, -4.34060951e+00, -6.33401294e-01, 0.00000000e+00, -3.2988738577, 1.4350111182, -3.7353524862, 1.7879370361, 10.0000000000, 299.7000000000, 0.4222493966
         230, -1.87393128e-01, 2.84683603e-03, 0.00000000e+00, 0.00000000e+00, 0.00000000e+00, -1.40691208e-01, 2.84683603e-03, -1.87393128e-01, 0.00000000e+00, -6.58250514e+01, 0.00000000e+00, 0.00000000e+00, -7.63541187e+00, 1.28614970e+02, 0.00000000e+00, -6.13371712e+00, -2.41993568e+00, -4.45126882e+00, -6.62649292e-01, 0.00000000e+00, -3.3294327151, 0.9290172859, -3.8223680873, 1.6834013675, 10.0000000000, 299.7000000000, 0.4407575011
         240, -1.87388716e-01, 2.70362236e-03, 0.00000000e+00, 0.00000000e+00, 0.00000000e+00, -1.40692794e-01, 2.70362236e-03, -1.87388716e-01, 0.00000000e+00, -6.93102407e+01, 0.00000000e+00, 0.00000000e+00, -6.89155413e+00, 1.26692116e+02, 0.00000000e+00, -6.16173254e+00, -2.44477504e+00, -4.52342586e+00, -6.89620673e-01, 0.00000000e+00, -3.3320566383, 1.4990005357, -3.8985613471, 1.7405371010, 10.0000000000, 299.7000000000, 0.4588661393
         250, -1.87383601e-01, 2.57484481e-03, 0.00000000e+00, 0.00000000e+00, 0.00000000e+00, -1.40693503e-01, 2.57484481e-03, -1.87383601e-01, 0.00000000e+00, -7.27747164e+01, 0.00000000e+00, 0.00000000e+00, -6.26299922e+00, 1.24979029e+02, 0.00000000e+00, -6.18830168e+00, -2.46823630e+00, -4.63062940e+00, -7.15123686e-01, 0.00000000e+00, -3.3045662307, 1.2923257601, -3.9534659472, 1.8660506928, 10.0000000000, 299.7000000000, 0.4772242904
         260, -1.87379121e-01, 2.45844944e-03, 0.00000000e+00, 0.00000000e+00, 0.00000000e+00, -1.40694473e-01, 2.45844944e-03, -1.87379121e-01, 0.00000000e+00, -7.62184155e+01, 0.00000000e+00, 0.00000000e+00, -5.72763522e+00, 1.23393135e+02, 0.00000000e+00, -6.21300756e+00, -2.49045373e+00, -4.66288997e+00, -7.38594108e-01, 0.00000000e+00, -3.2232317437, 1.2728799032, -3.9633109044, 1.9047214474, 10.0000000000, 299.7000000000, 0.4970315178
         270, -1.87373531e-01, 2.35274485e-03, 0.00000000e+00, 0.00000000e+00, 0.00000000e+00, -1.40694632e-01, 2.35274485e-03, -1.87373531e-01, 0.00000000e+00, -7.96403959e+01, 0.00000000e+00, 0.00000000e+00, -5.25851989e+00, 1.21886481e+02, 0.00000000e+00, -6.23666451e+00, -2.51152362e+00, -4.71264854e+00, -7.60938886e-01, 0.00000000e+00, -3.1277770063, 1.1993943091, -3.8961631541, 1.9759241517, 10.0000000000, 299.7000000000, 0.5174198548
         280, -1.87368335e-01, 2.25646140e-03, 0.00000000e+00, 0.00000000e+00, 0.00000000e+00, -1.40695107e-01, 2.25646140e-03, -1.87368335e-01, 0.00000000e+00, -8.30363576e+01, 0.00000000e+00, 0.00000000e+00, -4.85846829e+00, 1.20447740e+02, 0.00000000e+00, -6.25880548e+00, -2.53149069e+00, -4.69294845e+00, -7.81573164e-01, 0.00000000e+00, -3.0001761851, 1.3563508666, -3.7646609305, 2.0236901278, 10.0000000000, 299.7000000000, 0.5357853055
         290, -1.87362064e-01, 2.16853954e-03, 0.00000000e+00, 0.00000000e+00, 0.00000000e+00, -1.40695221e-01, 2.16853954e-03, -1.87362064e-01, 0.00000000e+00, -8.64001143e+01, 0.00000000e+00, 0.00000000e+00, -4.51319300e+00, 1.19088485e+02, 0.00000000e+00, -6.27985110e+00, -2.55034434e+00, -4.65232983e+00, -8.00957521e-01, 0.00000000e+00, -2.8782521631, 2.2067949987, -3.6194127554, 2.1116255273, 10.0000000000, 299.7000000000, 0.5573796948
         300, -1.87355398e-01, 2.08822427e-03, 0.00000000e+00, 0.00000000e+00, 0.00000000e+00, -1.40695585e-01, 2.08822427e-03, -1.87355398e-01, 0.00000000e+00, -8.97199601e+01, 0.00000000e+00, 0.00000000e+00, -4.21961481e+00, 1.17819044e+02, 0.00000000e+00, -6.29953144e+00, -2.56806007e+00, -4.58158106e+00, -8.18817754e-01, 0.00000000e+00, -2.7783553618, 1.4286681070, -3.4983115074, 2.1521753822, 10.0000000000, 299.7000000000, 0.5851821264
         310, -1.87347734e-01, 2.01493383e-03, 0.00000000e+00, 0.00000000e+00, 0.00000000e+00, -1.40696050e-01, 2.01493383e-03, -1.87347734e-01, 0.00000000e+00, -9.29795963e+01, 0.00000000e+00, 0.00000000e+00, -3.96480872e+00, 1.16637400e+02, 0.00000000e+00, -6.31802782e+00, -2.58466953e+00, -4.49987430e+00, -8.35403507e-01, 0.00000000e+00, -2.6695117253, 1.9001155972, -3.4182393475, 2.1736044539, 10.0000000000, 299.7000000000, 0.6106271148
         320, -1.87339295e-01, 1.94834186e-03, 0.00000000e+00, 0.00000000e+00, 0.00000000e+00, -1.40696753e-01, 1.94834186e-03, -1.87339295e-01, 0.00000000e+00, -9.61531952e+01, 0.00000000e+00, 0.00000000e+00, -3.77735400e+00, 1.15532968e+02, 0.00000000e+00, -6.33563482e+00, -2.60038842e+00, -4.42810906e+00, -8.51037633e-01, 0.00000000e+00, -2.5830259483, 2.8070819600, -3.3819185547, 2.1985963961, 10.0000000000, 299.7000000000, 0.6288383087
         330, -1.87330339e-01, 1.88794616e-03, 0.00000000e+00, 0.00000000e+00, 0.00000000e+00, -1.40697712e-01, 1.88794616e-03, -1.87330339e-01, 0.00000000e+00, -9.92244074e+01, 0.00000000e+00, 0.00000000e+00, -3.59483833e+00, 1.14491382e+02, 0.00000000e+00, -6.35258591e+00, -2.61553319e+00, -4.37517254e+00, -8.65921528e-01, 0.00000000e+00, -2.5115493053, 1.5758852702, -3.3461600736, 2.1817321785, 10.0000000000, 299.7000000000, 0.6468818267
         340, -1.87321027e-01, 1.83318225e-03, 0.00000000e+00, 0.00000000e+00, 0.00000000e+00, -1.40698757e-01, 1.83318225e-03, -1.87321027e-01, 0.00000000e+00, -1.02183527e+02, 0.00000000e+00, 0.00000000e+00, -3.44397873e+00, 1.13500994e+02, 0.00000000e+00, -6.36924921e+00, -2.63023923e+00, -4.36331734e+00, -8.80292602e-01, 0.00000000e+00, -2.4370231098, 2.7703595470, -3.3109951769, 2.2911976139, 10.0000000000, 299.7000000000, 0.6665096402
         350, -1.87311640e-01, 1.78359863e-03, 0.00000000e+00, 0.00000000e+00, 0.00000000e+00, -1.40699968e-01, 1.78359863e-03, -1.87311640e-01, 0.00000000e+00, -1.05018941e+02, 0.00000000e+00, 0.00000000e+00, -3.41542583e+00, 1.12555555e+02, 0.00000000e+00, -6.38579891e+00, -2.64457541e+00, -4.36539086e+00, -8.94267333e-01, 0.00000000e+00, -2.4108069505, 3.4291451413, -3.2542963577, 2.2274864602, 10.0000000000, 299.7000000000, 0.6848351479
         360, -1.87302460e-01, 1.73780464e-03, 0.00000000e+00, 0.00000000e+00, 0.00000000e+00, -1.40701136e-01, 1.73780464e-03, -1.87302460e-01, 0.00000000e+00, -1.07781079e+02, 0.00000000e+00, 0.00000000e+00, -3.28078600e+00, 1.11651203e+02, 0.00000000e+00, -6.40047586e+00, -2.65818843e+00, -4.32007165e+00, -9.06471876e-01, 0.00000000e+00, -2.3802081613, 2.1055195070, -3.2104228126, 2.2767192654, 10.0000000000, 299.7000000000, 0.7045923273
         370, -1.87293615e-01, 1.69523685e-03, 0.00000000e+00, 0.00000000e+00, 0.00000000e+00, -1.40702254e-01, 1.69523685e-03, -1.87293615e-01, 0.00000000e+00, -1.10482270e+02, 0.00000000e+00, 0.00000000e+00, -3.16349272e+00, 1.10787129e+02, 0.00000000e+00, -6.41566887e+00, -2.67137888e+00, -4.32522045e+00, -9.18991922e-01, 0.00000000e+00, -2.3440404789, 2.9344663791, -3.1809866187, 2.5214782100, 10.0000000000, 299.7000000000, 0.7240154386
         380, -1.87285093e-01, 1.65548324e-03, 0.00000000e+00, 0.00000000e+00, 0.00000000e+00, -1.40703240e-01, 1.65548324e-03, -1.87285093e-01, 0.00000000e+00, -1.13130166e+02, 0.00000000e+00, 0.00000000e+00, -3.15298121e+00, 1.09961774e+02, 0.00000000e+00, -6.43078841e+00, -2.68405587e+00, -4.30107126e+00, -9.31220576e-01, 0.00000000e+00, -2.3354179648, 3.3306173654, -3.1177411629, 2.5496419929, 10.0000000000, 299.7000000000, 0.7430876136
         390, -1.87276659e-01, 1.61819937e-03, 0.00000000e+00, 0.00000000e+00, 0.00000000e+00, -1.40704121e-01, 1.61819937e-03, -1.87276659e-01, 0.00000000e+00, -1.15731512e+02, 0.00000000e+00, 0.00000000e+00, -3.17740822e+00, 1.09176566e+02, 0.00000000e+00, -6.44396711e+00, -2.69602096e+00, -4.32537920e+00, -9.41771905e-01, 0.00000000e+00, -2.3302967401, 2.9810011182, -3.1010612796, 2.3238918591, 10.0000000000, 299.7000000000, 0.7621474703
         400, -1.87268965e-01, 1.58246981e-03, 0.00000000e+00, 0.00000000e+00, 0.00000000e+00, -1.40704735e-01, 1.58246981e-03, -1.87268965e-01, 0.00000000e+00, -1.18339676e+02, 0.00000000e+00, 0.00000000e+00, -3.04813742e+00, 1.08423234e+02, 0.00000000e+00, -6.45785834e+00, -2.70759840e+00, -4.29164957e+00, -9.52930470e-01, 0.00000000e+00, -2.3298196664, 2.6665849279, -3.0563667222, 2.3054068216, 10.0000000000, 299.9918659438, 0.7818598668
         410, -1.87261681e-01, 1.54867138e-03, 0.00000000e+00, 0.00000000e+00, 0.00000000e+00, -1.40705173e-01, 1.54867138e-03, -1.87261681e-01, 0.00000000e+00, -1.20917636e+02, 0.00000000e+00, 0.00000000e+00, -2.94235496e+00, 1.07710128e+02, 0.00000000e+00, -6.47309591e+00, -2.71858162e+00, -4.28605525e+00, -9.65120382e-01, 0.00000000e+00, -2.3071952635, 2.9972246071, -3.0204753991, 2.5787747132, 10.0000000000, 299.7000000000, 0.8017706871
         420, -1.87254773e-01, 1.51687558e-03, 0.00000000e+00, 0.00000000e+00, 0.00000000e+00, -1.40705443e-01, 1.51687558e-03, -1.87254773e-01, 0.00000000e+00, -1.23447681e+02, 0.00000000e+00, 0.00000000e+00, -2.93486971e+00, 1.07036306e+02, 0.00000000e+00, -6.48010752e+00, -2.72883786e+00, -4.30141007e+00, -9.70780544e-01, 0.00000000e+00, -2.2962341329, 3.5086763568, -3.0215939326, 2.3837637116, 10.0000000000, 299.7000000000, 0.8219324350
         430, -1.87247809e-01, 1.48700301e-03, 0.00000000e+00, 0.00000000e+00, 0.00000000e+00, -1.40705657e-01, 1.48700301e-03, -1.87247809e-01, 0.00000000e+00, -1.25922952e+02, 0.00000000e+00, 0.00000000e+00, -3.04358979e+00, 1.06436863e+02, 0.00000000e+00, -6.49332055e+00, -2.73895446e+00, -4.30275958e+00, -9.81590572e-01, 0.00000000e+00, -2.3032775495, 3.6187224040, -2.9782115203, 2.7652339111, 10.0000000000, 296.8276742960, 0.8395488620
         440, -1.87241197e-01, 1.45861078e-03, 0.00000000e+00, 0.00000000e+00, 0.00000000e+00, -1.40705566e-01, 1.45861078e-03, -1.87241197e-01, 0.00000000e+00, -1.28369542e+02, 0.00000000e+00, 0.00000000e+00, -2.94498063e+00, 1.05872245e+02, 0.00000000e+00, -6.50536170e+00, -2.74835747e+00, -4.28722639e+00, -9.91333179e-01, 0.00000000e+00, -2.2989530592, 2.7221894238, -2.9612141235, 2.3070688583, 10.0000000000, 297.6680077379, 0.8572341164
         450, -1.87234772e-01, 1.43158989e-03, 0.00000000e+00, 0.00000000e+00, 0.00000000e+00, -1.40705295e-01, 1.43158989e-03, -1.87234772e-01, 0.00000000e+00, -1.30787995e+02, 0.00000000e+00, 0.00000000e+00, -2.85359726e+00, 1.05377349e+02, 0.00000000e+00, -6.51016467e+00, -2.75730249e+00, -4.26014180e+00, -9.95700307e-01, 0.00000000e+00, -2.2868256545, 2.4859743164, -2.9470238637, 2.3286538187, 10.0000000000, 296.3282855196, 0.8748695413
         460, -1.87228393e-01, 1.40622761e-03, 0.00000000e+00, 0.00000000e+00, 0.00000000e+00, -1.40704816e-01, 1.40622761e-03, -1.87228393e-01, 0.00000000e+00, -1.33142311e+02, 0.00000000e+00, 0.00000000e+00, -2.78325312e+00, 1.04931597e+02, 0.00000000e+00, -6.52340957e+00, -2.76574162e+00, -4.25502281e+00, -1.00670780e+00, 0.00000000e+00, -2.2718300648, 3.1117597755, -2.9282916436, 2.6013295795, 10.0000000000, 291.8300286743, 0.8925746719
         470, -1.87221950e-01, 1.38246877e-03, 0.00000000e+00, 0.00000000e+00, 0.00000000e+00, -1.40704044e-01, 1.38246877e-03, -1.87221950e-01, 0.00000000e+00, -1.35425808e+02, 0.00000000e+00, 0.00000000e+00, -2.82322514e+00, 1.04531064e+02, 0.00000000e+00, -6.52863166e+00, -2.77363409e+00, -4.24942112e+00, -1.01160527e+00, 0.00000000e+00, -2.2520721313, 3.3803586304, -2.9212583694, 2.5217765598, 10.0000000000, 294.0166148132, 0.9112667123
         480, -1.87215238e-01, 1.36022550e-03, 0.00000000e+00, 0.00000000e+00, 0.00000000e+00, -1.40703202e-01, 1.36022550e-03, -1.87215238e-01, 0.00000000e+00, -1.37635442e+02, 0.00000000e+00, 0.00000000e+00, -2.92755481e+00, 1.04181703e+02, 0.00000000e+00, -6.53500904e+00, -2.78118779e+00, -4.25336232e+00, -1.01747907e+00, 0.00000000e+00, -2.2659295676, 3.6668333128, -2.8970445385, 2.3375644983, 10.0000000000, 289.7285941135, 0.9303310156
         490, -1.87208813e-01, 1.33898074e-03, 0.00000000e+00, 0.00000000e+00, 0.00000000e+00, -1.40702018e-01, 1.33898074e-03, -1.87208813e-01, 0.00000000e+00, -1.39814418e+02, 0.00000000e+00, 0.00000000e+00, -2.81335226e+00, 1.03854333e+02, 0.00000000e+00, -6.54386770e+00, -2.78818776e+00, -4.24364725e+00, -1.02546286e+00, 0.00000000e+00, -2.2443971813, 2.6354227186, -2.8738810922, 2.2789916761, 10.0000000000, 288.4966306367, 0.9480064392
         500, -1.87202345e-01, 1.31899674e-03, 0.00000000e+00, 0.00000000e+00, 0.00000000e+00, -1.40700593e-01, 1.31899674e-03, -1.87202345e-01, 0.00000000e+00, -1.41927830e+02, 0.00000000e+00, 0.00000000e+00, -2.75158618e+00, 1.03570485e+02, 0.00000000e+00, -6.55012222e+00, -2.79477020e+00, -4.24469003e+00, -1.03141996e+00, 0.00000000e+00, -2.2472943882, 2.8886265302, -2.8522231222, 2.5171299654, 10.0000000000, 287.4058677766, 0.9656825701
         510, -1.87195774e-01, 1.30040253e-03, 0.00000000e+00, 0.00000000e+00, 0.00000000e+00, -1.40698920e-01, 1.30040253e-03, -1.87195774e-01, 0.00000000e+00, -1.43952175e+02, 0.00000000e+00, 0.00000000e+00, -2.79690089e+00, 1.03318428e+02, 0.00000000e+00, -6.55657108e+00, -2.80088157e+00, -4.25135433e+00, -1.03760629e+00, 0.00000000e+00, -2.2275938252, 3.3911364210, -2.8302299087, 2.4915451767, 10.0000000000, 286.1955265759, 0.9834570885
         520, -1.87188954e-01, 1.28316016e-03, 0.00000000e+00, 0.00000000e+00, 0.00000000e+00, -1.40697069e-01, 1.28316016e-03, -1.87188954e-01, 0.00000000e+00, -1.45881207e+02, 0.00000000e+00, 0.00000000e+00, -2.89785671e+00, 1.03098427e+02, 0.00000000e+00, -6.56023534e+00, -2.80638368e+00, -4.26358003e+00, -1.04174290e+00, 0.00000000e+00, -2.2522707275, 3.0942626622, -2.8092966828, 2.3500107656, 10.0000000000, 283.0760225216, 1.0012878855
         530, -1.87182293e-01, 1.26679569e-03, 0.00000000e+00, 0.00000000e+00, 0.00000000e+00, -1.40694903e-01, 1.26679569e-03, -1.87182293e-01, 0.00000000e+00, -1.47760443e+02, 0.00000000e+00, 0.00000000e+00, -2.80928413e+00, 1.02899297e+02, 0.00000000e+00, -6.56504720e+00, -2.81130166e+00, -4.27357101e+00, -1.04733741e+00, 0.00000000e+00, -2.2305500253, 2.5972458677, -2.7932546033, 2.2974143184, 10.0000000000, 276.6106168224, 1.0216982683
         540, -1.87175605e-01, 1.25172783e-03, 0.00000000e+00, 0.00000000e+00, 0.00000000e+00, -1.40692433e-01, 1.25172783e-03, -1.87175605e-01, 0.00000000e+00, -1.49533789e+02, 0.00000000e+00, 0.00000000e+00, -2.77512412e+00, 1.02726345e+02, 0.00000000e+00, -6.56902199e+00, -2.81559941e+00, -4.24148035e+00, -1.05201136e+00, 0.00000000e+00, -2.2341640721, 3.2310050507, -2.7743056021, 2.6106706922, 10.0000000000, 270.5932641595, 1.0393701911
         550, -1.87168646e-01, 1.23801029e-03, 0.00000000e+00, 0.00000000e+00, 0.00000000e+00, -1.40689708e-01, 1.23801029e-03, -1.87168646e-01, 0.00000000e+00, -1.51185049e+02, 0.00000000e+00, 0.00000000e+00, -2.88263174e+00, 1.02575307e+02, 0.00000000e+00, -6.57328728e+00, -2.81914167e+00, -4.22021952e+00, -1.05713626e+00, 0.00000000e+00, -2.2529697804, 3.1653176820, -2.7647025836, 2.6487803644, 10.0000000000, 261.8977044616, 1.0571234783
         560, -1.87161635e-01, 1.22551923e-03, 0.00000000e+00, 0.00000000e+00, 0.00000000e+00, -1.40686753e-01, 1.22551923e-03, -1.87161635e-01, 0.00000000e+00, -1.52720276e+02, 0.00000000e+00, 0.00000000e+00, -2.87407839e+00, 1.02441896e+02, 0.00000000e+00, -6.57621125e+00, -2.82175413e+00, -4.17185485e+00, -1.06157505e+00, 0.00000000e+00, -2.2584653127, 2.8590032993, -2.7765330894, 2.3767383504, 10.0000000000, 251.3549252340, 1.0749653339
         570, -1.87154819e-01, 1.21407313e-03, 0.00000000e+00, 0.00000000e+00, 0.00000000e+00, -1.40683615e-01, 1.21407313e-03, -1.87154819e-01, 0.00000000e+00, -1.54154486e+02, 0.00000000e+00, 0.00000000e+00, -2.83152509e+00, 1.02326823e+02, 0.00000000e+00, -6.57812344e+00, -2.82309766e+00, -4.16541506e+00, -1.06517295e+00, 0.00000000e+00, -2.2481539251, 2.6308902300, -2.8015212774, 2.4347216494, 10.0000000000, 237.4733259249, 1.0926462571
         580, -1.87147966e-01, 1.20394412e-03, 0.00000000e+00, 0.00000000e+00, 0.00000000e+00, -1.40680275e-01, 1.20394412e-03, -1.87147966e-01, 0.00000000e+00, -1.55445725e+02, 0.00000000e+00, 0.00000000e+00, -2.87768860e+00, 1.02226102e+02, 0.00000000e+00, -6.57448918e+00, -2.82429478e+00, -4.15273090e+00, -1.06436913e+00, 0.00000000e+00, -2.2262377777, 3.3244628662, -2.8007989410, 2.3491777061, 10.0000000000, 224.9449528570, 1.1111356537
         590, -1.87141007e-01, 1.19491740e-03, 0.00000000e+00, 0.00000000e+00, 0.00000000e+00, -1.40676785e-01, 1.19491740e-03, -1.87141007e-01, 0.00000000e+00, -1.56614179e+02, 0.00000000e+00, 0.00000000e+00, -2.97818047e+00, 1.02137546e+02, 0.00000000e+00, -6.57621715e+00, -2.82555165e+00, -4.15027203e+00, -1.06744757e+00, 0.00000000e+00, -2.2105384227, 2.7670469163, -2.7767158098, 2.3378235418, 10.0000000000, 212.3549786330, 1.1301086227
         600, -1.87134372e-01, 1.18641616e-03, 0.00000000e+00, 0.00000000e+00, 0.00000000e+00, -1.40673094e-01, 1.18641616e-03, -1.87134372e-01, 0.00000000e+00, -1.57730802e+02, 0.00000000e+00, 0.00000000e+00, -2.92081842e+00, 1.02057228e+02, 0.00000000e+00, -6.58082084e+00, -2.82623832e+00, -4.15405240e+00, -1.07292575e+00, 0.00000000e+00, -2.2022637034, 2.4608186544, -2.7509950596, 2.3401393461, 10.0000000000, 201.9305176791, 1.1482332985
         610, -1.87127677e-01, 1.17877210e-03, 0.00000000e+00, 0.00000000e+00, 0.00000000e+00, -1.40669133e-01, 1.17877210e-03, -1.87127677e-01, 0.00000000e+00, -1.58747969e+02, 0.00000000e+00, 0.00000000e+00, -2.93878562e+00, 1.01985196e+02, 0.00000000e+00, -6.58267490e+00, -2.82643104e+00, -4.17437139e+00, -1.07592252e+00, 0.00000000e+00, -2.1918144150, 3.2943468447, -2.7327513937, 2.4200094385, 10.0000000000, 196.5419166175, 1.1660728335
         620, -1.87120695e-01, 1.17197003e-03, 0.00000000e+00, 0.00000000e+00, 0.00000000e+00, -1.40664968e-01, 1.17197003e-03, -1.87120695e-01, 0.00000000e+00, -1.59663378e+02, 0.00000000e+00, 0.00000000e+00, -3.06101460e+00, 1.01920604e+02, 0.00000000e+00, -6.57940837e+00, -2.82605593e+00, -4.20453565e+00, -1.07522263e+00, 0.00000000e+00, -2.1806052328, 3.4513207413, -2.7162860637, 2.3136284212, 10.0000000000, 191.8034813441, 1.1836967826
         630, -1.87113953e-01, 1.16553184e-03, 0.00000000e+00, 0.00000000e+00, 0.00000000e+00, -1.40660708e-01, 1.16553184e-03, -1.87113953e-01, 0.00000000e+00, -1.60539547e+02, 0.00000000e+00, 0.00000000e+00, -3.01195961e+00, 1.01860323e+02, 0.00000000e+00, -6.57857482e+00, -2.82535495e+00, -4.16510693e+00, -1.07661966e+00, 0.00000000e+00, -2.1866853961, 2.3116723637, -2.6957353034, 2.3841449078, 10.0000000000, 181.6180190108, 1.2017573357
         640, -1.87107236e-01, 1.15983353e-03, 0.00000000e+00, 0.00000000e+00, 0.00000000e+00, -1.40656305e-01, 1.15983353e-03, -1.87107236e-01, 0.00000000e+00, -1.61322492e+02, 0.00000000e+00, 0.00000000e+00, -3.02667445e+00, 1.01806211e+02, 0.00000000e+00, -6.58068476e+00, -2.82404554e+00, -4.15314709e+00, -1.07990919e+00, 0.00000000e+00, -2.1870787959, 3.2271146583, -2.6865435844, 2.4240193158, 10.0000000000, 173.6022600703, 1.2199288686
         650, -1.87100297e-01, 1.15489447e-03, 0.00000000e+00, 0.00000000e+00, 0.00000000e+00, -1.40651798e-01, 1.15489447e-03, -1.87100297e-01, 0.00000000e+00, -1.62006402e+02, 0.00000000e+00, 0.00000000e+00, -3.14491948e+00, 1.01757767e+02, 0.00000000e+00, -6.58124953e+00, -2.82222819e+00, -4.16244590e+00, -1.08181300e+00, 0.00000000e+00, -2.1824795389, 3.4684599873, -2.6726282793, 2.4323437959, 10.0000000000, 167.2513611741, 1.2377818743