TITLE = "SU2 Simulation"
VARIABLES = "Iteration","CL","CD","CSF","CMx","CMy","CMz","CFx","CFy","CFz","CL/CD","AoA","Custom_ObjFunc","HeatFlux_Total","HeatFlux_Maximum","Temperature_Total","Res_Flow[0]","Res_Flow[1]","Res_Flow[2]","Res_Flow[3]","Res_Flow[4]"," Res_Turb[0]"," Res_Turb[1]"," Res_Turb[2]"," Res_Turb[3]","Linear_Solver_Iterations","CFL_Number","Time(min)"
ZONE T= "Convergence history"
           0, -4.07953174e-01, 1.13662807e-01, 0.00000000e+00, 0.00000000e+00, 0.00000000e+00, -3.05967625e-01, 1.13662807e-01, -4.07953174e-01, 0.00000000e+00, -3.58915273e+00, 0.00000000e+00, 0.00000000e+00, -1.54420459e+07, 1.36608213e+07, 0.00000000e+00, -1.55646621e+01, -6.11260646e+00, -6.64721476e+00, 4.97621321e+00, 0.00000000e+00, 4.6555459534, 4.1118804901, -7.4013281749, 9.7310735126, 2.0000000000, 1.0000000000, 0.0030125976
          10, -1.92920488e-01, 6.01009791e-02, 0.00000000e+00, 0.00000000e+00, 0.00000000e+00, -1.44728473e-01, 6.01009791e-02, -1.92920488e-01, 0.00000000e+00, -3.20993918e+00, 0.00000000e+00, 0.00000000e+00, -3.18437106e+06, 2.81640650e+06, 0.00000000e+00, -1.21906299e+00, 1.66988583e+00, 1.21988392e+00, 4.56936248e+00, 0.00000000e+00, 2.1698646660, 8.6581231510, -0.7015242482, 5.3776679210, 4.0000000000, 1.0010000000, 0.0149432818
          20, -9.35273888e-02, 3.58370752e-02, 0.00000000e+00, 0.00000000e+00, 0.00000000e+00, -7.01666801e-02, 3.58370752e-02, -9.35273888e-02, 0.00000000e+00, -2.60979414e+00, 0.00000000e+00, 0.00000000e+00, -8.78674158e+05, 7.79033565e+05, 0.00000000e+00, -1.29735810e+00, 1.58884145e+00, 1.21520711e+00, 4.46932929e+00, 0.00000000e+00, 1.8932041283, 8.3845360199, -0.9297366328, 4.7895748985, 4.0000000000, 1.0770882355, 0.0250495156
          30, -5.10652446e-02, 2.81148050e-02, 0.00000000e+00, 0.00000000e+00, 0.00000000e+00, -3.83061549e-02, 2.81148050e-02, -5.10652446e-02, 0.00000000e+00, -1.81631153e+00, 0.00000000e+00, 0.00000000e+00, -3.44282819e+05, 3.27291491e+05, 0.00000000e+00, -1.44005315e+00, 1.43030293e+00, 1.12307877e+00, 4.32060778e+00, 0.00000000e+00, 1.7002113164, 8.2092840244, -1.0826385337, 4.6003650773, 4.0000000000, 1.2727119319, 0.0363560001
          40, -3.07003404e-02, 2.44510069e-02, 0.00000000e+00, 0.00000000e+00, 0.00000000e+00, -2.30279810e-02, 2.44510069e-02, -3.07003404e-02, 0.00000000e+00, -1.25558593e+00, 0.00000000e+00, 0.00000000e+00, -2.13148867e+05, 2.23782332e+05, 0.00000000e+00, -1.53847485e+00, 1.32125986e+00, 1.04529124e+00, 4.22104707e+00, 0.00000000e+00, 1.5531160038, 8.0984734499, -1.1968307734, 4.0493934288, 4.0000000000, 1.4315303827, 0.0463594476
          50, -2.04724733e-02, 2.21797197e-02, 0.00000000e+00, 0.00000000e+00, 0.00000000e+00, -1.53556967e-02, 2.21797197e-02, -2.04724733e-02, 0.00000000e+00, -9.23026691e-01, 0.00000000e+00, 0.00000000e+00, -1.88513895e+05, 1.87250687e+05, 0.00000000e+00, -1.61019647e+00, 1.24401301e+00, 9.79106355e-01, 4.14771043e+00, 0.00000000e+00, 1.4453310751, 8.0168411763, -1.2922105168, 3.6344664914, 5.0000000000, 1.5580923786, 0.0563458323
          60, -1.47670071e-02, 2.04788852e-02, 0.00000000e+00, 0.00000000e+00, 0.00000000e+00, -1.10759596e-02, 2.04788852e-02, -1.47670071e-02, 0.00000000e+00, -7.21084522e-01, 0.00000000e+00, 0.00000000e+00, -1.78405498e+05, 1.68244690e+05, 0.00000000e+00, -1.66835364e+00, 1.18315125e+00, 9.21184703e-01, 4.08812867e+00, 0.00000000e+00, 1.3562833883, 7.9481453346, -1.3857676764, 3.7022263259, 5.0000000000, 1.6691135176, 0.0658682505
          70, -1.13598312e-02, 1.91067804e-02, 0.00000000e+00, 0.00000000e+00, 0.00000000e+00, -8.52007152e-03, 1.91067804e-02, -1.13598312e-02, 0.00000000e+00, -5.94544498e-01, 0.00000000e+00, 0.00000000e+00, -1.65158307e+05, 1.52290724e+05, 0.00000000e+00, -1.71738057e+00, 1.13273564e+00, 8.70493883e-01, 4.03773762e+00, 0.00000000e+00, 1.2800125139, 7.8882562732, -1.4838985222, 3.7170279596, 5.0000000000, 1.7678353965, 0.0758950472
          80, -9.01376459e-03, 1.79286864e-02, 0.00000000e+00, 0.00000000e+00, 0.00000000e+00, -6.76004737e-03, 1.79286864e-02, -9.01376459e-03, 0.00000000e+00, -5.02756553e-01, 0.00000000e+00, 0.00000000e+00, -1.52664535e+05, 1.39080159e+05, 0.00000000e+00, -1.75520495e+00, 1.09388299e+00, 8.30527718e-01, 3.99852401e+00, 0.00000000e+00, 1.2151157043, 7.8342936319, -1.5887496191, 3.6046712279, 6.0000000000, 1.8488750765, 0.0861310999
          90, -7.49001257e-03, 1.69182280e-02, 0.00000000e+00, 0.00000000e+00, 0.00000000e+00, -5.61693393e-03, 1.69182280e-02, -7.49001257e-03, 0.00000000e+00, -4.42718503e-01, 0.00000000e+00, 0.00000000e+00, -1.38735098e+05, 1.25735564e+05, 0.00000000e+00, -1.77638497e+00, 1.07113648e+00, 8.07017658e-01, 3.97555202e+00, 0.00000000e+00, 1.1574526556, 7.7857586005, -1.7008580396, 3.5597533861, 6.0000000000, 1.8987472970, 0.0958420674
         100, -6.40417404e-03, 1.60415943e-02, 0.00000000e+00, 0.00000000e+00, 0.00000000e+00, -4.80235393e-03, 1.60415943e-02, -6.40417404e-03, 0.00000000e+00, -3.99223041e-01, 0.00000000e+00, 0.00000000e+00, -1.25902855e+05, 1.13702548e+05, 0.00000000e+00, -1.77779761e+00, 1.06632169e+00, 8.03897510e-01, 3.97116216e+00, 0.00000000e+00, 1.1081489705, 7.7441155783, -1.8168491899, 3.3423758279, 6.0000000000, 1.9012281399, 0.1059679508
         110, -5.70907717e-03, 1.52962472e-02, 0.00000000e+00, 0.00000000e+00, 0.00000000e+00, -4.28131845e-03, 1.52962472e-02, -5.70907717e-03, 0.00000000e+00, -3.73233845e-01, 0.00000000e+00, 0.00000000e+00, -1.14529758e+05, 1.03004707e+05, 0.00000000e+00, -1.76584634e+00, 1.07232395e+00, 8.14775668e-01, 3.97824700e+00, 0.00000000e+00, 1.0658223687, 7.7075600362, -1.9317204255, 3.1979091912, 6.0000000000, 1.8300503431, 0.1153742830
         120, -5.26140562e-03, 1.46670985e-02, 0.00000000e+00, 0.00000000e+00, 0.00000000e+00, -3.94617998e-03, 1.46670985e-02, -5.26140562e-03, 0.00000000e+00, -3.58721639e-01, 0.00000000e+00, 0.00000000e+00, -1.04176042e+05, 9.33437003e+04, 0.00000000e+00, -1.75111149e+00, 1.07924219e+00, 8.28485867e-01, 3.98663137e+00, 0.00000000e+00, 1.0294180908, 7.6056366619, -2.0423820540, 3.0944560586, 6.0000000000, 1.7387869271, 0.1257805149
         130, -4.94738867e-03, 1.41251444e-02, 0.00000000e+00, 0.00000000e+00, 0.00000000e+00, -3.71132422e-03, 1.41251444e-02, -4.94738867e-03, 0.00000000e+00, -3.50254025e-01, 0.00000000e+00, 0.00000000e+00, -9.43283005e+04, 8.44119125e+04, 0.00000000e+00, -1.74143408e+00, 1.08093304e+00, 8.36508311e-01, 3.98973043e+00, 0.00000000e+00, 0.9927671808, 7.7758831683, -2.1503228240, 3.1718364309, 6.0000000000, 1.6780002346, 0.1348099152
         140, -4.72733882e-03, 1.36425383e-02, 0.00000000e+00, 0.00000000e+00, 0.00000000e+00, -3.54624262e-03, 1.36425383e-02, -4.72733882e-03, 0.00000000e+00, -3.46514609e-01, 0.00000000e+00, 0.00000000e+00, -8.49960435e+04, 7.62529959e+04, 0.00000000e+00, -1.74234570e+00, 1.07321128e+00, 8.33008049e-01, 3.98301181e+00, 0.00000000e+00, 0.9556907592, 7.8995761635, -2.2573627871, 3.2456986884, 6.0000000000, 1.6696061479, 0.1434313655
         150, -4.55637505e-03, 1.31970087e-02, 0.00000000e+00, 0.00000000e+00, 0.00000000e+00, -3.41657015e-03, 1.31970087e-02, -4.55637505e-03, 0.00000000e+00, -3.45258169e-01, 0.00000000e+00, 0.00000000e+00, -7.64914369e+04, 6.88597267e+04, 0.00000000e+00, -1.75923547e+00, 1.05086724e+00, 8.13076550e-01, 3.96090994e+00, 0.00000000e+00, 0.9182722596, 7.9636927612, -2.3675445671, 3.3344859044, 6.0000000000, 1.6971960950, 0.1519264817
         160, -4.39973933e-03, 1.27745244e-02, 0.00000000e+00, 0.00000000e+00, 0.00000000e+00, -3.29696332e-03, 1.27745244e-02, -4.39973933e-03, 0.00000000e+00, -3.44415119e-01, 0.00000000e+00, 0.00000000e+00, -6.84605429e+04, 6.19054625e+04, 0.00000000e+00, -1.79425169e+00, 1.01039067e+00, 7.75672873e-01, 3.92023059e+00, 0.00000000e+00, 0.8801272812, 7.9932133717, -2.4837763600, 3.3658746066, 5.0000000000, 1.7626708485, 0.1602191647
         170, -4.25908001e-03, 1.23647624e-02, 0.00000000e+00, 0.00000000e+00, 0.00000000e+00, -3.18873348e-03, 1.23647624e-02, -4.25908001e-03, 0.00000000e+00, -3.44453040e-01, 0.00000000e+00, 0.00000000e+00, -6.09709691e+04, 5.54263328e+04, 0.00000000e+00, -1.85118857e+00, 9.46069453e-01, 7.16337183e-01, 3.85525318e+00, 0.00000000e+00, 0.8408452343, 8.0006134868, -2.6094617968, 3.4015857770, 6.0000000000, 1.8791922597, 0.1686886986
         180, -4.13633247e-03, 1.19584139e-02, 0.00000000e+00, 0.00000000e+00, 0.00000000e+00, -3.09243856e-03, 1.19584139e-02, -4.13633247e-03, 0.00000000e+00, -3.45893068e-01, 0.00000000e+00, 0.00000000e+00, -5.38190420e+04, 4.96189774e+04, 0.00000000e+00, -1.92858394e+00, 8.60920554e-01, 6.34069508e-01, 3.76884045e+00, 0.00000000e+00, 0.7998125656, 7.9912689206, -2.7472312133, 3.4481899000, 6.0000000000, 2.0502739330, 0.1767832160
         190, -3.99864014e-03, 1.15442597e-02, 0.00000000e+00, 0.00000000e+00, 0.00000000e+00, -2.97821331e-03, 1.15442597e-02, -3.99864014e-03, 0.00000000e+00, -3.46374756e-01, 0.00000000e+00, 0.00000000e+00, -4.71866562e+04, 4.46321703e+04, 0.00000000e+00, -2.02962872e+00, 7.54014580e-01, 5.25711338e-01, 3.65916602e+00, 0.00000000e+00, 0.7562665640, 7.9667753433, -2.9048210826, 3.4698281949, 6.0000000000, 2.2974663141, 0.1848028819
         200, -3.83740000e-03, 1.11132101e-02, 0.00000000e+00, 0.00000000e+00, 0.00000000e+00, -2.82295152e-03, 1.11132101e-02, -3.83740000e-03, 0.00000000e+00, -3.45300769e-01, 0.00000000e+00, 0.00000000e+00, -4.08159132e+04, 4.00744374e+04, 0.00000000e+00, -2.15474774e+00, 6.27759684e-01, 3.90987223e-01, 3.52699973e+00, 0.00000000e+00, 0.7093281049, 7.9220369528, -3.0915122187, 3.5040120145, 6.0000000000, 2.6450710007, 0.1925909479
         210, -3.65658639e-03, 1.06579429e-02, 0.00000000e+00, 0.00000000e+00, 0.00000000e+00, -2.60097637e-03, 1.06579429e-02, -3.65658639e-03, 0.00000000e+00, -3.43085568e-01, 0.00000000e+00, 0.00000000e+00, -3.47336206e+04, 3.49899483e+04, 0.00000000e+00, -2.29651750e+00, 4.92290390e-01, 2.37999691e-01, 3.38117922e+00, 0.00000000e+00, 0.6601698067, 7.8242896567, -3.3163451662, 3.4721027813, 7.0000000000, 3.1069664940, 0.2006136656
         220, -3.54241129e-03, 1.01783865e-02, 0.00000000e+00, 0.00000000e+00, 0.00000000e+00, -2.39689205e-03, 1.01783865e-02, -3.54241129e-03, 0.00000000e+00, -3.48032697e-01, 0.00000000e+00, 0.00000000e+00, -2.84120431e+04, 3.02112416e+04, 0.00000000e+00, -2.44494377e+00, 3.58455857e-01, 7.68858328e-02, 3.23199850e+00, 0.00000000e+00, 0.5751982381, 7.7067649371, -3.6342174465, 4.8812683232, 8.0000000000, 3.6879515510, 0.2092181484
         230, -3.74104518e-03, 9.68838007e-03, 0.00000000e+00, 0.00000000e+00, 0.00000000e+00, -2.60626154e-03, 9.68838007e-03, -3.74104518e-03, 0.00000000e+00, -3.86137327e-01, 0.00000000e+00, 0.00000000e+00, -2.09311364e+04, 2.50762944e+04, 0.00000000e+00, -2.59449401e+00, 2.30281823e-01, -8.56785024e-02, 3.08329139e+00, 0.00000000e+00, 0.5278041563, 7.5906184206, -3.8663672856, 3.4831226270, 8.0000000000, 4.3762207817, 0.2178238829
         240, -4.18187416e-03, 9.18185382e-03, 0.00000000e+00, 0.00000000e+00, 0.00000000e+00, -3.21073291e-03, 9.18185382e-03, -4.18187416e-03, 0.00000000e+00, -4.55449873e-01, 0.00000000e+00, 0.00000000e+00, -1.34683549e+04, 2.00966195e+04, 0.00000000e+00, -2.75425680e+00, 1.09350574e-01, -2.70290496e-01, 2.92341215e+00, 0.00000000e+00, 0.4100089276, 7.4767556399, -4.1326364942, 3.6648321945, 8.0000000000, 5.2470785678, 0.2269046664
         250, -4.35023178e-03, 8.62708498e-03, 0.00000000e+00, 0.00000000e+00, 0.00000000e+00, -3.36739635e-03, 8.62708498e-03, -4.35023178e-03, 0.00000000e+00, -5.04252803e-01, 0.00000000e+00, 0.00000000e+00, -7.66367197e+03, 1.61302634e+04, 0.00000000e+00, -2.94541340e+00, 2.69428967e-03, -5.34614418e-01, 2.74183015e+00, 0.00000000e+00, 0.1230516497, 7.3607803275, -4.3845427568, 5.0250134721, 9.0000000000, 6.5273532980, 0.2363017837
         260, -4.39843831e-03, 8.03719720e-03, 0.00000000e+00, 0.00000000e+00, 0.00000000e+00, -3.15631111e-03, 8.03719720e-03, -4.39843831e-03, 0.00000000e+00, -5.47260220e-01, 0.00000000e+00, 0.00000000e+00, -3.08027222e+03, 1.33784053e+04, 0.00000000e+00, -3.10763156e+00, -7.89166191e-02, -8.08577519e-01, 2.60417368e+00, 0.00000000e+00, -1.1164979451, 7.2382903137, -4.4511304983, 4.6517408983, 11.0000000000, 7.9290370093, 0.2470021645
         270, -4.42025247e-03, 7.45920764e-03, 0.00000000e+00, 0.00000000e+00, 0.00000000e+00, -3.13952500e-03, 7.45920764e-03, -4.42025247e-03, 0.00000000e+00, -5.92590082e-01, 0.00000000e+00, 0.00000000e+00, 5.72214931e+02, 1.11372913e+04, 0.00000000e+00, -3.20147318e+00, -1.35405808e-01, -9.80223921e-01, 2.52667036e+00, 0.00000000e+00, -3.4848496386, 7.1171872758, -4.4663679085, 3.3457074602, 12.0000000000, 8.8828986087, 0.2579320312
         280, -4.18375851e-03, 6.92023702e-03, 0.00000000e+00, 0.00000000e+00, 0.00000000e+00, -3.06919051e-03, 6.92023702e-03, -4.18375851e-03, 0.00000000e+00, -6.04568673e-01, 0.00000000e+00, 0.00000000e+00, 2.38723406e+03, 9.41577466e+03, 0.00000000e+00, -3.27178087e+00, -1.73195743e-01, -1.18479169e+00, 2.47270532e+00, 0.00000000e+00, -3.7425974649, 7.0048979497, -4.4776664496, 3.2824458942, 12.0000000000, 9.6227608305, 0.2690442324
         290, -3.79885735e-03, 6.42639076e-03, 0.00000000e+00, 0.00000000e+00, 0.00000000e+00, -2.89660956e-03, 6.42639076e-03, -3.79885735e-03, 0.00000000e+00, -5.91133887e-01, 0.00000000e+00, 0.00000000e+00, 3.48481308e+03, 8.11981889e+03, 0.00000000e+00, -3.32301570e+00, -2.11466100e-01, -1.54879758e+00, 2.42976785e+00, 0.00000000e+00, -4.0103482464, 6.8996275869, -4.4913412711, 3.2017365358, 12.0000000000, 10.2870167464, 0.2801611821
         300, -3.35308003e-03, 5.98721539e-03, 0.00000000e+00, 0.00000000e+00, 0.00000000e+00, -2.61891409e-03, 5.98721539e-03, -3.35308003e-03, 0.00000000e+00, -5.60039987e-01, 0.00000000e+00, 0.00000000e+00, 4.30281940e+03, 7.18862795e+03, 0.00000000e+00, -3.34334393e+00, -2.39457953e-01, -1.46272750e+00, 2.40872109e+00, 0.00000000e+00, -4.2957750767, 6.8032531599, -4.4923689357, 3.1190127199, 12.0000000000, 10.5099850469, 0.2911481142
         310, -2.95443593e-03, 5.59999712e-03, 0.00000000e+00, 0.00000000e+00, 0.00000000e+00, -2.23395388e-03, 5.59999712e-03, -2.95443593e-03, 0.00000000e+00, -5.27578117e-01, 0.00000000e+00, 0.00000000e+00, 5.29916143e+03, 6.61999559e+03, 0.00000000e+00, -3.38553288e+00, -2.80954868e-01, -1.41326975e+00, 2.36290090e+00, 0.00000000e+00, -4.5945886359, 6.7144725137, -4.5488643304, 3.0508243634, 11.0000000000, 10.9776431397, 0.3019350489
         320, -2.72920949e-03, 5.25165920e-03, 0.00000000e+00, 0.00000000e+00, 0.00000000e+00, -2.01823945e-03, 5.25165920e-03, -2.72920949e-03, 0.00000000e+00, -5.19685186e-01, 0.00000000e+00, 0.00000000e+00, 6.88463300e+03, 6.73484458e+03, 0.00000000e+00, -3.43478495e+00, -3.27886116e-01, -1.45482221e+00, 2.30999954e+00, 0.00000000e+00, -4.1811814475, 6.6302374868, -4.5572855391, 3.0131769774, 12.0000000000, 11.6223197211, 0.3131714304
         330, -2.56532181e-03, 4.93273857e-03, 0.00000000e+00, 0.00000000e+00, 0.00000000e+00, -1.92274009e-03, 4.93273857e-03, -2.56532181e-03, 0.00000000e+00, -5.20060364e-01, 0.00000000e+00, 0.00000000e+00, 8.26097778e+03, 7.34548295e+03, 0.00000000e+00, -3.48260492e+00, -3.65893727e-01, -1.67073547e+00, 2.26475170e+00, 0.00000000e+00, -4.5215910816, 6.5500603035, -4.5852569250, 2.9586656272, 12.0000000000, 12.3200521762, 0.3240260323
         340, -2.38043263e-03, 4.64131008e-03, 0.00000000e+00, 0.00000000e+00, 0.00000000e+00, -1.80751105e-03, 4.64131008e-03, -2.38043263e-03, 0.00000000e+00, -5.12879465e-01, 0.00000000e+00, 0.00000000e+00, 9.07490622e+03, 7.99659568e+03, 0.00000000e+00, -3.51208006e+00, -3.94160992e-01, -1.83892084e+00, 2.23749375e+00, 0.00000000e+00, -4.1178370599, 6.4736606528, -4.6200828848, 2.9251481645, 13.0000000000, 12.7682846164, 0.3359833996
         350, -2.17931772e-03, 4.37605110e-03, 0.00000000e+00, 0.00000000e+00, 0.00000000e+00, -1.64259512e-03, 4.37605110e-03, -2.17931772e-03, 0.00000000e+00, -4.98010119e-01, 0.00000000e+00, 0.00000000e+00, 9.56990398e+03, 8.51840601e+03, 0.00000000e+00, -3.54141634e+00, -4.25382435e-01, -1.82136057e+00, 2.20712057e+00, 0.00000000e+00, -4.4857720843, 6.4007401407, -4.6610724589, 2.8647757950, 13.0000000000, 13.2221955827, 0.3479397655
         360, -2.02175457e-03, 4.13408974e-03, 0.00000000e+00, 0.00000000e+00, 0.00000000e+00, -1.51337382e-03, 4.13408974e-03, -2.02175457e-03, 0.00000000e+00, -4.89044674e-01, 0.00000000e+00, 0.00000000e+00, 1.01165012e+04, 9.02220487e+03, 0.00000000e+00, -3.57479461e+00, -4.57913839e-01, -1.87390470e+00, 2.17384590e+00, 0.00000000e+00, -4.7966626931, 6.3307212885, -4.6814688786, 3.5727025177, 13.0000000000, 13.7490514207, 0.3610155145
         370, -1.88543875e-03, 3.91160935e-03, 0.00000000e+00, 0.00000000e+00, 0.00000000e+00, -1.41156381e-03, 3.91160935e-03, -1.88543875e-03, 0.00000000e+00, -4.82011004e-01, 0.00000000e+00, 0.00000000e+00, 1.05597977e+04, 9.43608011e+03, 0.00000000e+00, -3.60605002e+00, -4.87967944e-01, -1.93073683e+00, 2.14320094e+00, 0.00000000e+00, -4.5027192886, 6.2630919126, -4.6918777316, 2.7814317217, 13.0000000000, 14.2404236514, 0.3740931670
         380, -1.76151624e-03, 3.70720794e-03, 0.00000000e+00, 0.00000000e+00, 0.00000000e+00, -1.31628794e-03, 3.70720794e-03, -1.76151624e-03, 0.00000000e+00, -4.75159816e-01, 0.00000000e+00, 0.00000000e+00, 1.08771666e+04, 9.81014417e+03, 0.00000000e+00, -3.63500379e+00, -5.16069810e-01, -2.01240886e+00, 2.11424831e+00, 0.00000000e+00, -4.5435111262, 6.1978297577, -4.7151984737, 3.3721789040, 13.0000000000, 14.7383268833, 0.3862758994
         390, -1.64943144e-03, 3.51899305e-03, 0.00000000e+00, 0.00000000e+00, 0.00000000e+00, -1.22825139e-03, 3.51899305e-03, -1.64943144e-03, 0.00000000e+00, -4.68722564e-01, 0.00000000e+00, 0.00000000e+00, 1.10609473e+04, 1.01738183e+04, 0.00000000e+00, -3.66527212e+00, -5.44334471e-01, -2.05847147e+00, 2.08423952e+00, 0.00000000e+00, -4.5703182707, 6.1345780953, -4.7431527143, 2.7020055477, 13.0000000000, 15.2038719192, 0.3983678341
         400, -1.57276892e-03, 3.34545890e-03, 0.00000000e+00, 0.00000000e+00, 0.00000000e+00, -1.16801156e-03, 3.34545890e-03, -1.57276892e-03, 0.00000000e+00, -4.70120534e-01, 0.00000000e+00, 0.00000000e+00, 1.12197350e+04, 1.06980722e+04, 0.00000000e+00, -3.69565796e+00, -5.71547738e-01, -2.13958597e+00, 2.05436089e+00, 0.00000000e+00, -4.2313499787, 6.0732177613, -4.7677609615, 2.6784514246, 13.0000000000, 15.7086809381, 0.4118197004
         410, -1.48574695e-03, 3.18480172e-03, 0.00000000e+00, 0.00000000e+00, 0.00000000e+00, -1.09971725e-03, 3.18480172e-03, -1.48574695e-03, 0.00000000e+00, -4.66511602e-01, 0.00000000e+00, 0.00000000e+00, 1.13453654e+04, 1.14447716e+04, 0.00000000e+00, -3.72395347e+00, -5.97737585e-01, -2.19223796e+00, 2.02632435e+00, 0.00000000e+00, -4.6863712702, 6.0134948966, -4.8032986645, 2.6257751585, 14.0000000000, 16.1733513400, 0.4257867972
         420, -1.42081430e-03, 3.03631624e-03, 0.00000000e+00, 0.00000000e+00, 0.00000000e+00, -1.04837551e-03, 3.03631624e-03, -1.42081430e-03, 0.00000000e+00, -4.67940156e-01, 0.00000000e+00, 0.00000000e+00, 1.13667459e+04, 1.23429314e+04, 0.00000000e+00, -3.74793245e+00, -6.22077626e-01, -2.18875428e+00, 2.00240887e+00, 0.00000000e+00, -4.3538682498, 5.9553398440, -4.8344061530, 2.5946968982, 14.0000000000, 16.5625928537, 0.4399013837
         430, -1.35886295e-03, 2.89880902e-03, 0.00000000e+00, 0.00000000e+00, 0.00000000e+00, -9.99220084e-04, 2.89880902e-03, -1.35886295e-03, 0.00000000e+00, -4.68765946e-01, 0.00000000e+00, 0.00000000e+00, 1.13650260e+04, 1.33012517e+04, 0.00000000e+00, -3.77407504e+00, -6.46834583e-01, -2.15210254e+00, 1.97630052e+00, 0.00000000e+00, -4.8236867872, 5.8987351439, -4.8592535585, 2.5478826751, 14.0000000000, 16.8600557862, 0.4561112324
         440, -1.30587337e-03, 2.77121302e-03, 0.00000000e+00, 0.00000000e+00, 0.00000000e+00, -9.56979153e-04, 2.77121302e-03, -1.30587337e-03, 0.00000000e+00, -4.71228073e-01, 0.00000000e+00, 0.00000000e+00, 1.13349192e+04, 1.42198604e+04, 0.00000000e+00, -3.78822777e+00, -6.67779373e-01, -2.05942075e+00, 1.96239617e+00, 0.00000000e+00, -4.5505524075, 5.8435036808, -4.8830711472, 2.5177322777, 14.0000000000, 17.1344550655, 0.4706730008
         450, -1.25405863e-03, 2.65219724e-03, 0.00000000e+00, 0.00000000e+00, 0.00000000e+00, -9.15472890e-04, 2.65219724e-03, -1.25405863e-03, 0.00000000e+00, -4.72837622e-01, 0.00000000e+00, 0.00000000e+00, 1.12516623e+04, 1.50449926e+04, 0.00000000e+00, -3.80668795e+00, -6.89520078e-01, -2.18514500e+00, 1.94333472e+00, 0.00000000e+00, -4.2515263805, 5.7894731769, -4.9066762129, 2.6104682187, 14.0000000000, 17.4786348114, 0.4861455162
         460, -1.20602639e-03, 2.54176103e-03, 0.00000000e+00, 0.00000000e+00, 0.00000000e+00, -8.76974333e-04, 2.54176103e-03, -1.20602639e-03, 0.00000000e+00, -4.74484572e-01, 0.00000000e+00, 0.00000000e+00, 1.11574958e+04, 1.57578544e+04, 0.00000000e+00, -3.83933244e+00, -7.13387062e-01, -2.36598470e+00, 1.91130050e+00, 0.00000000e+00, -4.7335209996, 5.7368989619, -4.9398586697, 2.4498323797, 14.0000000000, 18.0299351839, 0.5030838490
         470, -1.16640457e-03, 2.43876831e-03, 0.00000000e+00, 0.00000000e+00, 0.00000000e+00, -8.44897843e-04, 2.43876831e-03, -1.16640457e-03, 0.00000000e+00, -4.78276090e-01, 0.00000000e+00, 0.00000000e+00, 1.10481653e+04, 1.63620940e+04, 0.00000000e+00, -3.86262055e+00, -7.34394487e-01, -2.36836629e+00, 1.88833233e+00, 0.00000000e+00, -4.4680757474, 5.6854231514, -4.9701222111, 2.4969052663, 14.0000000000, 18.4202998777, 0.5207804004
         480, -1.12427060e-03, 2.34240565e-03, 0.00000000e+00, 0.00000000e+00, 0.00000000e+00, -8.10797333e-04, 2.34240565e-03, -1.12427060e-03, 0.00000000e+00, -4.79964091e-01, 0.00000000e+00, 0.00000000e+00, 1.09312551e+04, 1.68622161e+04, 0.00000000e+00, -3.88063786e+00, -7.54747802e-01, -2.24694479e+00, 1.87010768e+00, 0.00000000e+00, -4.2223190246, 5.6348827533, -4.9814769281, 2.3757430959, 14.0000000000, 18.5550246253, 0.5391842008
         490, -1.07893949e-03, 2.25187679e-03, 0.00000000e+00, 0.00000000e+00, 0.00000000e+00, -7.74263027e-04, 2.25187679e-03, -1.07893949e-03, 0.00000000e+00, -4.79129007e-01, 0.00000000e+00, 0.00000000e+00, 1.07995168e+04, 1.72665233e+04, 0.00000000e+00, -3.89405534e+00, -7.73225511e-01, -2.27564388e+00, 1.85633521e+00, 0.00000000e+00, -4.6159108879, 5.5852118229, -5.0343892108, 2.3514050059, 14.0000000000, 18.8863660305, 0.5577741981
         500, -1.03304827e-03, 2.16720070e-03, 0.00000000e+00, 0.00000000e+00, 0.00000000e+00, -7.37157140e-04, 2.16720070e-03, -1.03304827e-03, 0.00000000e+00, -4.76674019e-01, 0.00000000e+00, 0.00000000e+00, 1.06533152e+04, 1.75840317e+04, 0.00000000e+00, -3.92393119e+00, -7.94123928e-01, -2.47047005e+00, 1.82733828e+00, 0.00000000e+00, -4.4763326265, 5.5366978314, -5.0716005717, 2.3178624418, 15.0000000000, 19.4658674651, 0.5761246324
         510, -9.87824044e-04, 2.08795361e-03, 0.00000000e+00, 0.00000000e+00, 0.00000000e+00, -7.00773392e-04, 2.08795361e-03, -9.87824044e-04, 0.00000000e+00, -4.73106317e-01, 0.00000000e+00, 0.00000000e+00, 1.04938090e+04, 1.78260126e+04, 0.00000000e+00, -3.94307308e+00, -8.13280714e-01, -2.36235921e+00, 1.80809952e+00, 0.00000000e+00, -4.2056939850, 5.4891083126, -5.0807687497, 2.3214244306, 15.0000000000, 19.6104063356, 0.5930412809
         520, -9.48961773e-04, 2.01307659e-03, 0.00000000e+00, 0.00000000e+00, 0.00000000e+00, -6.69201182e-04, 2.01307659e-03, -9.48961773e-04, 0.00000000e+00, -4.71398742e-01, 0.00000000e+00, 0.00000000e+00, 1.03307152e+04, 1.80030750e+04, 0.00000000e+00, -3.95123289e+00, -8.29506806e-01, -2.30023336e+00, 1.79938215e+00, 0.00000000e+00, -4.0504408216, 5.4421155266, -5.1308506794, 2.2935615554, 15.0000000000, 19.7676100535, 0.6127016981
         530, -9.12539238e-04, 1.94274095e-03, 0.00000000e+00, 0.00000000e+00, 0.00000000e+00, -6.39298847e-04, 1.94274095e-03, -9.12539238e-04, 0.00000000e+00, -4.69717406e-01, 0.00000000e+00, 0.00000000e+00, 1.01612655e+04, 1.81221836e+04, 0.00000000e+00, -3.97884621e+00, -8.48648938e-01, -2.53009356e+00, 1.77268739e+00, 0.00000000e+00, -4.2496631984, 5.3961695603, -5.1613983430, 2.2443014035, 15.0000000000, 20.3825509928, 0.6380760670
         540, -8.79856074e-04, 1.87640424e-03, 0.00000000e+00, 0.00000000e+00, 0.00000000e+00, -6.12374687e-04, 1.87640424e-03, -8.79856074e-04, 0.00000000e+00, -4.68905397e-01, 0.00000000e+00, 0.00000000e+00, 9.99473552e+03, 1.81910492e+04, 0.00000000e+00, -3.99478828e+00, -8.66234567e-01, -2.39929826e+00, 1.75645108e+00, 0.00000000e+00, -4.1343026831, 5.3508442200, -5.1733400978, 2.2298681184, 15.0000000000, 20.5439637904, 0.6552774986
         550, -8.49133057e-04, 1.81326460e-03, 0.00000000e+00, 0.00000000e+00, 0.00000000e+00, -5.86880775e-04, 1.81326460e-03, -8.49133057e-04, 0.00000000e+00, -4.68289658e-01, 0.00000000e+00, 0.00000000e+00, 9.82210918e+03, 1.82147521e+04, 0.00000000e+00, -4.00615546e+00, -8.82003482e-01, -2.50380621e+00, 1.74487628e+00, 0.00000000e+00, -3.9622274545, 5.3059108524, -5.2000886434, 2.1991313806, 15.0000000000, 20.8772159573, 0.6830177307
         560, -8.22092975e-04, 1.75415707e-03, 0.00000000e+00, 0.00000000e+00, 0.00000000e+00, -5.64098182e-04, 1.75415707e-03, -8.22092975e-04, 0.00000000e+00, -4.68654142e-01, 0.00000000e+00, 0.00000000e+00, 9.65508953e+03, 1.81990648e+04, 0.00000000e+00, -4.02939403e+00, -8.99222146e-01, -2.51523546e+00, 1.72255196e+00, 0.00000000e+00, -3.8008074481, 5.2621228997, -5.2428432910, 2.1869051396, 15.0000000000, 21.2462624943, 0.7001717647
         570, -7.95568815e-04, 1.69781805e-03, 0.00000000e+00, 0.00000000e+00, 0.00000000e+00, -5.41729519e-04, 1.69781805e-03, -7.95568815e-04, 0.00000000e+00, -4.68583083e-01, 0.00000000e+00, 0.00000000e+00, 9.47961429e+03, 1.81492434e+04, 0.00000000e+00, -4.03960319e+00, -9.14993356e-01, -2.45683175e+00, 1.71152696e+00, 0.00000000e+00, -3.6593453726, 5.2186350577, -5.1941570940, 2.1385794416, 15.0000000000, 21.3890846684, 0.7265589674
         580, -7.69854626e-04, 1.64427977e-03, 0.00000000e+00, 0.00000000e+00, 0.00000000e+00, -5.19804674e-04, 1.64427977e-03, -7.69854626e-04, 0.00000000e+00, -4.68201727e-01, 0.00000000e+00, 0.00000000e+00, 9.31122203e+03, 1.80724580e+04, 0.00000000e+00, -4.06516175e+00, -9.32344857e-01, -2.78394227e+00, 1.68673385e+00, 0.00000000e+00, -3.4940563680, 5.1757646734, -5.2616744166, 2.2911055392, 15.0000000000, 22.0641295339, 0.7462263823
         590, -7.48510313e-04, 1.59375894e-03, 0.00000000e+00, 0.00000000e+00, 0.00000000e+00, -5.01510373e-04, 1.59375894e-03, -7.48510313e-04, 0.00000000e+00, -4.69650894e-01, 0.00000000e+00, 0.00000000e+00, 9.14420587e+03, 1.79773772e+04, 0.00000000e+00, -4.07327426e+00, -9.46168367e-01, -2.42678707e+00, 1.67842217e+00, 0.00000000e+00, -3.3851894841, 5.1335657666, -5.2063278318, 2.1387393647, 15.0000000000, 22.0673204130, 0.7711233139
         600, -7.27473810e-04, 1.54544855e-03, 0.00000000e+00, 0.00000000e+00, 0.00000000e+00, -4.83000741e-04, 1.54544855e-03, -7.27473810e-04, 0.00000000e+00, -4.70720173e-01, 0.00000000e+00, 0.00000000e+00, 8.97001726e+03, 1.78699953e+04, 0.00000000e+00, -4.09391361e+00, -9.62479221e-01, -2.74658284e+00, 1.65815714e+00, 0.00000000e+00, -3.2204767622, 5.0917839809, -5.0133645108, 2.0822829574, 15.0000000000, 22.6652997790, 0.7983430664
         610, -7.09168683e-04, 1.49975746e-03, 0.00000000e+00, 0.00000000e+00, 0.00000000e+00, -4.66865420e-04, 1.49975746e-03, -7.09168683e-04, 0.00000000e+00, -4.72855580e-01, 0.00000000e+00, 0.00000000e+00, 8.80894275e+03, 1.77587279e+04, 0.00000000e+00, -4.10945606e+00, -9.77705863e-01, -2.54775074e+00, 1.64258054e+00, 0.00000000e+00, -3.0301869364, 5.0506713403, -4.9570506218, 2.0817683944, 15.0000000000, 22.8173891189, 0.8200844804
         620, -6.90604639e-04, 1.45578172e-03, 0.00000000e+00, 0.00000000e+00, 0.00000000e+00, -4.50347052e-04, 1.45578172e-03, -6.90604639e-04, 0.00000000e+00, -4.74387492e-01, 0.00000000e+00, 0.00000000e+00, 8.63972491e+03, 1.76479134e+04, 0.00000000e+00, -4.11926563e+00, -9.91279183e-01, -2.70944442e+00, 1.63261991e+00, 0.00000000e+00, -2.8175824540, 5.0096608494, -4.7527341956, 2.1124608570, 15.0000000000, 23.1663310862, 0.8438053171
         630, -6.74900718e-04, 1.41451459e-03, 0.00000000e+00, 0.00000000e+00, 0.00000000e+00, -4.36022640e-04, 1.41451459e-03, -6.74900718e-04, 0.00000000e+00, -4.77125313e-01, 0.00000000e+00, 0.00000000e+00, 8.48146532e+03, 1.75463101e+04, 0.00000000e+00, -4.13395099e+00, -1.00516788e+00, -2.66884833e+00, 1.61835160e+00, 0.00000000e+00, -2.5903463147, 4.9697364659, -4.5253538087, 2.1749093329, 15.0000000000, 23.3083170059, 0.8680823485
         640, -6.58157298e-04, 1.37469890e-03, 0.00000000e+00, 0.00000000e+00, 0.00000000e+00, -4.20752674e-04, 1.37469890e-03, -6.58157298e-04, 0.00000000e+00, -4.78764695e-01, 0.00000000e+00, 0.00000000e+00, 8.31121676e+03, 1.74553971e+04, 0.00000000e+00, -4.14798924e+00, -1.01960532e+00, -2.67163461e+00, 1.60417706e+00, 0.00000000e+00, -2.3462422497, 4.9298898965, -4.2463103110, 2.3197384927, 15.0000000000, 23.7444555775, 0.8932935158
         650, -6.44301996e-04, 1.33704293e-03, 0.00000000e+00, 0.00000000e+00, 0.00000000e+00, -4.07860061e-04, 1.33704293e-03, -6.44301996e-04, 0.00000000e+00, -4.81885797e-01, 0.00000000e+00, 0.00000000e+00, 8.15561565e+03, 1.73804595e+04, 0.00000000e+00, -4.16878008e+00, -1.03466969e+00, -2.72838770e+00, 1.58374223e+00, 0.00000000e+00, -2.0891458227, 4.8908483013, -3.9417689780, 2.5100256683, 15.0000000000, 24.0561978629, 0.9234338005
         660, -6.30224251e-04, 1.30065549e-03, 0.00000000e+00, 0.00000000e+00, 0.00000000e+00, -3.94688981e-04, 1.30065549e-03, -6.30224251e-04, 0.00000000e+00, -4.84543568e-01, 0.00000000e+00, 0.00000000e+00, 7.99925841e+03, 1.73219588e+04, 0.00000000e+00, -4.17534279e+00, -1.04691522e+00, -2.75766601e+00, 1.57684683e+00, 0.00000000e+00, -1.8154038427, 4.8517767013, -3.5969028598, 2.4605225349, 15.0000000000, 24.2352612392, 0.9576291005