TITLE = "SU2 Simulation"
VARIABLES = "Iteration","CL","CD","CSF","CMx","CMy","CMz","CFx","CFy","CFz","CL/CD","AoA","Custom_ObjFunc","HeatFlux_Total","HeatFlux_Maximum","Temperature_Total","Res_Flow[0]","Res_Flow[1]","Res_Flow[2]","Res_Flow[3]","Res_Flow[4]","Res_Turb[0]","Res_Turb[1]","Linear_Solver_Iterations","CFL_Number","Time(min)"
ZONE T= "Convergence history"
           0, -4.00000173e-01, 2.01249572e-01, 0.00000000e+00, 0.00000000e+00, 0.00000000e+00, -3.00000369e-01, 2.01249572e-01, -4.00000173e-01, 0.00000000e+00, -1.98758273e+00, 0.00000000e+00, 0.00000000e+00, -8.74672925e+04, 7.87986278e+04, 0.00000000e+00, -2.26369284e+00, 6.52141827e-02, 1.21914533e-01, 3.20528024e+00, 0.00000000e+00, 2.1823431226, 6.1387840047, 8.0000000000, 10.0000000000, 0.0011613131
          10, -2.96551332e-02, 8.38904686e-02, 0.00000000e+00, 0.00000000e+00, 0.00000000e+00, -4.86276854e-02, 8.38904686e-02, -2.96551332e-02, 0.00000000e+00, -3.53498242e-01, 0.00000000e+00, 0.00000000e+00, -6.68363029e+03, 6.02114316e+03, 0.00000000e+00, -3.11415726e+00, -4.68059220e-01, -7.37254251e-01, 2.36732720e+00, 0.00000000e+00, -0.3166119408, 5.3836971493, 10.0000000000, 25.1318606198, 0.0125679731
          20, -3.41286805e-01, 5.03343220e-02, 0.00000000e+00, 0.00000000e+00, 0.00000000e+00, -2.44336503e-01, 5.03343220e-02, -3.41286805e-01, 0.00000000e+00, -6.78039937e+00, 0.00000000e+00, 0.00000000e+00, -2.63078128e+03, 2.37356454e+03, 0.00000000e+00, -3.46732779e+00, -7.82397102e-01, -7.56424023e-01, 2.01556396e+00, 0.00000000e+00, -0.8916347286, 4.6420334082, 10.0000000000, 39.1084116623, 0.0243800799
          30, -1.58493461e-01, 3.72475200e-02, 0.00000000e+00, 0.00000000e+00, 0.00000000e+00, -7.92067073e-02, 3.72475200e-02, -1.58493461e-01, 0.00000000e+00, -4.25514132e+00, 0.00000000e+00, 0.00000000e+00, -1.44329713e+03, 1.31278484e+03, 0.00000000e+00, -3.55852520e+00, -8.87926887e-01, -1.21009647e+00, 1.92919185e+00, 0.00000000e+00, -1.1332678316, 4.4909081918, 10.0000000000, 40.7765023188, 0.0360872348
          40, -1.35469877e-01, 3.00766296e-02, 0.00000000e+00, 0.00000000e+00, 0.00000000e+00, -1.42362861e-01, 3.00766296e-02, -1.35469877e-01, 0.00000000e+00, -4.50415751e+00, 0.00000000e+00, 0.00000000e+00, -9.45351321e+02, 8.49316763e+02, 0.00000000e+00, -3.68380497e+00, -1.06673212e+00, -1.07234411e+00, 1.77024170e+00, 0.00000000e+00, -1.3072090014, 4.1877059567, 10.0000000000, 47.1294129614, 0.0479786714
          50, -2.21628529e-01, 2.50388693e-02, 0.00000000e+00, 0.00000000e+00, 0.00000000e+00, -1.46589119e-01, 2.50388693e-02, -2.21628529e-01, 0.00000000e+00, -8.85137928e+00, 0.00000000e+00, 0.00000000e+00, -6.62607256e+02, 5.99491769e+02, 0.00000000e+00, -3.89628539e+00, -1.23232238e+00, -1.24545949e+00, 1.58536673e+00, 0.00000000e+00, -1.4419213409, 4.1113962620, 10.0000000000, 61.0017046525, 0.0595651706
          60, -1.68311679e-01, 2.11644162e-02, 0.00000000e+00, 0.00000000e+00, 0.00000000e+00, -1.34462677e-01, 2.11644162e-02, -1.68311679e-01, 0.00000000e+00, -7.95257836e+00, 0.00000000e+00, 0.00000000e+00, -4.68296543e+02, 4.44922084e+02, 0.00000000e+00, -4.12703797e+00, -1.34187899e+00, -1.57019558e+00, 1.32748282e+00, 0.00000000e+00, -1.5848684154, 3.9230719257, 10.0000000000, 77.3002548174, 0.0711872061
          70, -1.93888059e-01, 1.82944615e-02, 0.00000000e+00, 0.00000000e+00, 0.00000000e+00, -1.41141186e-01, 1.82944615e-02, -1.93888059e-01, 0.00000000e+00, -1.05981834e+01, 0.00000000e+00, 0.00000000e+00, -3.49869560e+02, 3.24518202e+02, 0.00000000e+00, -4.30651318e+00, -1.45204315e+00, -1.70545071e+00, 1.17137216e+00, 0.00000000e+00, -1.7306140851, 3.6180894806, 10.0000000000, 85.9506268512, 0.0830338637
          80, -1.82586961e-01, 1.60809374e-02, 0.00000000e+00, 0.00000000e+00, 0.00000000e+00, -1.39028243e-01, 1.60809374e-02, -1.82586961e-01, 0.00000000e+00, -1.13542486e+01, 0.00000000e+00, 0.00000000e+00, -2.68354202e+02, 2.58209880e+02, 0.00000000e+00, -4.43454426e+00, -1.53948708e+00, -1.90303257e+00, 1.04333372e+00, 0.00000000e+00, -1.8710341436, 3.4378457711, 10.0000000000, 87.7311435110, 0.0946936925
          90, -1.88380995e-01, 1.42605053e-02, 0.00000000e+00, 0.00000000e+00, 0.00000000e+00, -1.40407866e-01, 1.42605053e-02, -1.88380995e-01, 0.00000000e+00, -1.32099803e+01, 0.00000000e+00, 0.00000000e+00, -2.10266219e+02, 2.32884073e+02, 0.00000000e+00, -4.68402488e+00, -1.60780789e+00, -2.21192547e+00, 7.97966593e-01, 0.00000000e+00, -2.0192007956, 3.2544892824, 10.0000000000, 92.8661291696, 0.1063783924
         100, -1.87111264e-01, 1.25509597e-02, 0.00000000e+00, 0.00000000e+00, 0.00000000e+00, -1.40383760e-01, 1.25509597e-02, -1.87111264e-01, 0.00000000e+00, -1.49081241e+01, 0.00000000e+00, 0.00000000e+00, -1.61882267e+02, 1.97953923e+02, 0.00000000e+00, -5.03411495e+00, -1.68667996e+00, -2.56507540e+00, 4.29216492e-01, 0.00000000e+00, -2.1693244158, 3.1799750264, 10.0000000000, 133.9817651705, 0.1182529171
         110, -1.86959307e-01, 1.09508102e-02, 0.00000000e+00, 0.00000000e+00, 0.00000000e+00, -1.40296411e-01, 1.09508102e-02, -1.86959307e-01, 0.00000000e+00, -1.70726461e+01, 0.00000000e+00, 0.00000000e+00, -1.22201937e+02, 1.80462357e+02, 0.00000000e+00, -5.26041183e+00, -1.76339530e+00, -2.75837790e+00, 1.96275204e-01, 0.00000000e+00, -2.2958664427, 3.0983506094, 10.0000000000, 172.2803218337, 0.1300468206
         120, -1.87194809e-01, 9.52584414e-03, 0.00000000e+00, 0.00000000e+00, 0.00000000e+00, -1.40433236e-01, 9.52584414e-03, -1.87194809e-01, 0.00000000e+00, -1.96512568e+01, 0.00000000e+00, 0.00000000e+00, -9.14750160e+01, 1.69310748e+02, 0.00000000e+00, -5.38614787e+00, -1.84062868e+00, -2.92982349e+00, 6.93202943e-02, 0.00000000e+00, -2.3509538314, 2.9873667451, 10.0000000000, 202.3033570634, 0.1418227990
         130, -1.87256365e-01, 8.36047709e-03, 0.00000000e+00, 0.00000000e+00, 0.00000000e+00, -1.40492989e-01, 8.36047709e-03, -1.87256365e-01, 0.00000000e+00, -2.23978085e+01, 0.00000000e+00, 0.00000000e+00, -6.98526670e+01, 1.62199173e+02, 0.00000000e+00, -5.48266125e+00, -1.91267560e+00, -3.04836210e+00, -2.20198428e-02, 0.00000000e+00, -2.3314333166, 2.8766668888, 10.0000000000, 227.3903887951, 0.1538016915
         140, -1.87294662e-01, 7.41409705e-03, 0.00000000e+00, 0.00000000e+00, 0.00000000e+00, -1.40534799e-01, 7.41409705e-03, -1.87294662e-01, 0.00000000e+00, -2.52619652e+01, 0.00000000e+00, 0.00000000e+00, -5.45908976e+01, 1.57674461e+02, 0.00000000e+00, -5.57519168e+00, -1.97952817e+00, -3.17106548e+00, -1.10518968e-01, 0.00000000e+00, -2.2658489146, 2.7709620388, 10.0000000000, 253.6952351991, 0.1656322082
         150, -1.87343561e-01, 6.64779694e-03, 0.00000000e+00, 0.00000000e+00, 0.00000000e+00, -1.40582912e-01, 6.64779694e-03, -1.87343561e-01, 0.00000000e+00, -2.81813001e+01, 0.00000000e+00, 0.00000000e+00, -4.37216849e+01, 1.54767897e+02, 0.00000000e+00, -5.65924298e+00, -2.04098522e+00, -3.29983864e+00, -1.91175296e-01, 0.00000000e+00, -2.1782176423, 2.6679016224, 10.0000000000, 279.9631021990, 0.1773966670
         160, -1.87341490e-01, 6.03830954e-03, 0.00000000e+00, 0.00000000e+00, 0.00000000e+00, -1.40597051e-01, 6.03830954e-03, -1.87341490e-01, 0.00000000e+00, -3.10254864e+01, 0.00000000e+00, 0.00000000e+00, -3.60488539e+01, 1.52871389e+02, 0.00000000e+00, -5.73250272e+00, -2.09386266e+00, -3.43257686e+00, -2.61543153e-01, 0.00000000e+00, -2.1324554283, 2.5650056086, 10.0000000000, 299.7000000000, 0.1894129713
         170, -1.87358364e-01, 5.58439647e-03, 0.00000000e+00, 0.00000000e+00, 0.00000000e+00, -1.40620901e-01, 5.58439647e-03, -1.87358364e-01, 0.00000000e+00, -3.35503334e+01, 0.00000000e+00, 0.00000000e+00, -3.08766299e+01, 1.51676653e+02, 0.00000000e+00, -5.79447702e+00, -2.13599202e+00, -3.55745391e+00, -3.20897457e-01, 0.00000000e+00, -2.1221636801, 2.4727113364, 10.0000000000, 299.7000000000, 0.2015134494
         180, -1.87344967e-01, 5.25304445e-03, 0.00000000e+00, 0.00000000e+00, 0.00000000e+00, -1.40625221e-01, 5.25304445e-03, -1.87344967e-01, 0.00000000e+00, -3.56640742e+01, 0.00000000e+00, 0.00000000e+00, -2.73635781e+01, 1.50904997e+02, 0.00000000e+00, -5.84192649e+00, -2.16926824e+00, -3.67193722e+00, -3.66701237e-01, 0.00000000e+00, -2.1202402423, 2.3945309726, 10.0000000000, 299.7000000000, 0.2136361440
         190, -1.87338812e-01, 5.00587605e-03, 0.00000000e+00, 0.00000000e+00, 0.00000000e+00, -1.40631518e-01, 5.00587605e-03, -1.87338812e-01, 0.00000000e+00, -3.74237815e+01, 0.00000000e+00, 0.00000000e+00, -2.48912024e+01, 1.50409006e+02, 0.00000000e+00, -5.87689918e+00, -2.19599875e+00, -3.78041639e+00, -4.00649748e-01, 0.00000000e+00, -2.1249676285, 2.3229140886, 10.0000000000, 299.7000000000, 0.2255231698
         200, -1.87321472e-01, 4.81608792e-03, 0.00000000e+00, 0.00000000e+00, 0.00000000e+00, -1.40630668e-01, 4.81608792e-03, -1.87321472e-01, 0.00000000e+00, -3.88949443e+01, 0.00000000e+00, 0.00000000e+00, -2.31181994e+01, 1.50101882e+02, 0.00000000e+00, -5.90251220e+00, -2.21809540e+00, -3.85752820e+00, -4.25839929e-01, 0.00000000e+00, -2.1381518860, 2.2525816988, 10.0000000000, 299.7000000000, 0.2374779304
         210, -1.87301498e-01, 4.66570846e-03, 0.00000000e+00, 0.00000000e+00, 0.00000000e+00, -1.40625932e-01, 4.66570846e-03, -1.87301498e-01, 0.00000000e+00, -4.01442781e+01, 0.00000000e+00, 0.00000000e+00, -2.18134970e+01, 1.49933226e+02, 0.00000000e+00, -5.92336657e+00, -2.23743688e+00, -3.95278916e+00, -4.46261152e-01, 0.00000000e+00, -2.1577097468, 2.1874213062, 10.0000000000, 299.7000000000, 0.2495677193
         220, -1.87279505e-01, 4.54200788e-03, 0.00000000e+00, 0.00000000e+00, 0.00000000e+00, -1.40618627e-01, 4.54200788e-03, -1.87279505e-01, 0.00000000e+00, -4.12327566e+01, 0.00000000e+00, 0.00000000e+00, -2.08155263e+01, 1.49866322e+02, 0.00000000e+00, -5.93817208e+00, -2.25516972e+00, -3.97825166e+00, -4.59918231e-01, 0.00000000e+00, -2.1815949413, 2.1261082689, 10.0000000000, 299.7000000000, 0.2614575028
         230, -1.87251408e-01, 4.43610301e-03, 0.00000000e+00, 0.00000000e+00, 0.00000000e+00, -1.40604619e-01, 4.43610301e-03, -1.87251408e-01, 0.00000000e+00, -4.22107891e+01, 0.00000000e+00, 0.00000000e+00, -2.00212495e+01, 1.49875763e+02, 0.00000000e+00, -5.95256041e+00, -2.27201482e+00, -4.04527812e+00, -4.71794715e-01, 0.00000000e+00, -2.2090941229, 2.0673337685, 10.0000000000, 299.7000000000, 0.2733940005
         240, -1.87223757e-01, 4.34170841e-03, 0.00000000e+00, 0.00000000e+00, 0.00000000e+00, -1.40587410e-01, 4.34170841e-03, -1.87223757e-01, 0.00000000e+00, -4.31221397e+01, 0.00000000e+00, 0.00000000e+00, -1.93667992e+01, 1.49944129e+02, 0.00000000e+00, -5.96129620e+00, -2.28849965e+00, -4.03532294e+00, -4.76888641e-01, 0.00000000e+00, -2.2389893067, 2.0120172527, 10.0000000000, 299.7000000000, 0.2855147163
         250, -1.87191392e-01, 4.25466726e-03, 0.00000000e+00, 0.00000000e+00, 0.00000000e+00, -1.40562737e-01, 4.25466726e-03, -1.87191392e-01, 0.00000000e+00, -4.39967172e+01, 0.00000000e+00, 0.00000000e+00, -1.88126815e+01, 1.50056571e+02, 0.00000000e+00, -5.96576396e+00, -2.30514486e+00, -4.04974014e+00, -4.79742664e-01, 0.00000000e+00, -2.2716305851, 1.9564557243, 10.0000000000, 299.7739541550, 0.2974703630
         260, -1.87160560e-01, 4.17255797e-03, 0.00000000e+00, 0.00000000e+00, 0.00000000e+00, -1.40533870e-01, 4.17255797e-03, -1.87160560e-01, 0.00000000e+00, -4.48551132e+01, 0.00000000e+00, 0.00000000e+00, -1.83342796e+01, 1.50202116e+02, 0.00000000e+00, -5.95939174e+00, -2.32289830e+00, -4.04150155e+00, -4.78429494e-01, 0.00000000e+00, -2.3089126829, 1.9006946858, 10.0000000000, 294.2923748883, 0.3093658686
         270, -1.87129366e-01, 4.09579961e-03, 0.00000000e+00, 0.00000000e+00, 0.00000000e+00, -1.40499885e-01, 4.09579961e-03, -1.87129366e-01, 0.00000000e+00, -4.56881156e+01, 0.00000000e+00, 0.00000000e+00, -1.79235055e+01, 1.50365511e+02, 0.00000000e+00, -5.94638100e+00, -2.34140059e+00, -4.01570827e+00, -4.77538655e-01, 0.00000000e+00, -2.3419167177, 1.8445971764, 10.0000000000, 281.9079778120, 0.3214970032
         280, -1.87101497e-01, 4.02381932e-03, 0.00000000e+00, 0.00000000e+00, 0.00000000e+00, -1.40462826e-01, 4.02381932e-03, -1.87101497e-01, 0.00000000e+00, -4.64984836e+01, 0.00000000e+00, 0.00000000e+00, -1.75647054e+01, 1.50537668e+02, 0.00000000e+00, -5.93255291e+00, -2.36023201e+00, -4.01737662e+00, -4.76673976e-01, 0.00000000e+00, -2.3731256732, 1.7950625545, 10.0000000000, 268.7611099449, 0.3334415277
         290, -1.87077389e-01, 3.95558648e-03, 0.00000000e+00, 0.00000000e+00, 0.00000000e+00, -1.40422857e-01, 3.95558648e-03, -1.87077389e-01, 0.00000000e+00, -4.72944758e+01, 0.00000000e+00, 0.00000000e+00, -1.72487443e+01, 1.50712900e+02, 0.00000000e+00, -5.91942723e+00, -2.37940073e+00, -3.96180130e+00, -4.72116795e-01, 0.00000000e+00, -2.4024708033, 1.7502720350, 10.0000000000, 256.4675464204, 0.3453332027
         300, -1.87056802e-01, 3.89013726e-03, 0.00000000e+00, 0.00000000e+00, 0.00000000e+00, -1.40378981e-01, 3.89013726e-03, -1.87056802e-01, 0.00000000e+00, -4.80848848e+01, 0.00000000e+00, 0.00000000e+00, -1.69714192e+01, 1.50888636e+02, 0.00000000e+00, -5.91022189e+00, -2.39909712e+00, -3.92851595e+00, -4.65173512e-01, 0.00000000e+00, -2.4317455826, 1.7149164324, 10.0000000000, 248.3473787476, 0.3574182073
         310, -1.87041130e-01, 3.82720386e-03, 0.00000000e+00, 0.00000000e+00, 0.00000000e+00, -1.40332214e-01, 3.82720386e-03, -1.87041130e-01, 0.00000000e+00, -4.88714834e+01, 0.00000000e+00, 0.00000000e+00, -1.67287812e+01, 1.51063725e+02, 0.00000000e+00, -5.90105722e+00, -2.41994652e+00, -3.86846598e+00, -4.53731943e-01, 0.00000000e+00, -2.4598216507, 1.6880337848, 10.0000000000, 240.5641098338, 0.3693337321
         320, -1.87031224e-01, 3.76713752e-03, 0.00000000e+00, 0.00000000e+00, 0.00000000e+00, -1.40284147e-01, 3.76713752e-03, -1.87031224e-01, 0.00000000e+00, -4.96481008e+01, 0.00000000e+00, 0.00000000e+00, -1.65175534e+01, 1.51235419e+02, 0.00000000e+00, -5.89217508e+00, -2.44251799e+00, -3.81091659e+00, -4.40347035e-01, 0.00000000e+00, -2.4905343847, 1.6728277550, 10.0000000000, 233.2093613293, 0.3812931577
         330, -1.87029769e-01, 3.71022293e-03, 0.00000000e+00, 0.00000000e+00, 0.00000000e+00, -1.40238707e-01, 3.71022293e-03, -1.87029769e-01, 0.00000000e+00, -5.04093075e+01, 0.00000000e+00, 0.00000000e+00, -1.63332894e+01, 1.51402495e+02, 0.00000000e+00, -5.88279003e+00, -2.46724921e+00, -3.75901972e+00, -4.26179008e-01, 0.00000000e+00, -2.5212629075, 1.6685172487, 10.0000000000, 225.9158502929, 0.3930518945
         340, -1.87039569e-01, 3.65673803e-03, 0.00000000e+00, 0.00000000e+00, 0.00000000e+00, -1.40201884e-01, 3.65673803e-03, -1.87039569e-01, 0.00000000e+00, -5.11492940e+01, 0.00000000e+00, 0.00000000e+00, -1.61712177e+01, 1.51563370e+02, 0.00000000e+00, -5.87303933e+00, -2.49439275e+00, -3.70612619e+00, -4.12180967e-01, 0.00000000e+00, -2.5528339773, 1.6719169828, 10.0000000000, 218.3955118797, 0.4048671683
         350, -1.87063601e-01, 3.60646824e-03, 0.00000000e+00, 0.00000000e+00, 0.00000000e+00, -1.40180356e-01, 3.60646824e-03, -1.87063601e-01, 0.00000000e+00, -5.18689167e+01, 0.00000000e+00, 0.00000000e+00, -1.60269550e+01, 1.51718289e+02, 0.00000000e+00, -5.86704087e+00, -2.52396394e+00, -3.66814155e+00, -4.03028364e-01, 0.00000000e+00, -2.5855204023, 1.6840224202, 10.0000000000, 213.4387299625, 0.4168104529
         360, -1.87102408e-01, 3.55860629e-03, 0.00000000e+00, 0.00000000e+00, 0.00000000e+00, -1.40178003e-01, 3.55860629e-03, -1.87102408e-01, 0.00000000e+00, -5.25774397e+01, 0.00000000e+00, 0.00000000e+00, -1.58953555e+01, 1.51869760e+02, 0.00000000e+00, -5.86944716e+00, -2.55562597e+00, -3.64216513e+00, -4.03480304e-01, 0.00000000e+00, -2.6190168057, 1.7076653129, 10.0000000000, 213.2911744230, 0.4285207391
         370, -1.87152063e-01, 3.51228966e-03, 0.00000000e+00, 0.00000000e+00, 0.00000000e+00, -1.40192426e-01, 3.51228966e-03, -1.87152063e-01, 0.00000000e+00, -5.32849171e+01, 0.00000000e+00, 0.00000000e+00, -1.57715362e+01, 1.52020674e+02, 0.00000000e+00, -5.88782723e+00, -2.58830239e+00, -3.63731655e+00, -4.20582930e-01, 0.00000000e+00, -2.6519930812, 1.7423161125, 10.0000000000, 217.4195151487, 0.4402919650
         380, -1.87205150e-01, 3.46686994e-03, 0.00000000e+00, 0.00000000e+00, 0.00000000e+00, -1.40214462e-01, 3.46686994e-03, -1.87205150e-01, 0.00000000e+00, -5.39983193e+01, 0.00000000e+00, 0.00000000e+00, -1.56519257e+01, 1.52173375e+02, 0.00000000e+00, -5.91913572e+00, -2.62068436e+00, -3.65319456e+00, -4.50489187e-01, 0.00000000e+00, -2.6831369881, 1.7868674930, 10.0000000000, 225.1846718366, 0.4522186478
         390, -1.87255828e-01, 3.42215361e-03, 0.00000000e+00, 0.00000000e+00, 0.00000000e+00, -1.40235787e-01, 3.42215361e-03, -1.87255828e-01, 0.00000000e+00, -5.47187092e+01, 0.00000000e+00, 0.00000000e+00, -1.55345207e+01, 1.52328629e+02, 0.00000000e+00, -5.95340977e+00, -2.65224027e+00, -3.67843809e+00, -4.83350749e-01, 0.00000000e+00, -2.7122345391, 1.8353274909, 10.0000000000, 234.2742931018, 0.4639455199
         400, -1.87302832e-01, 3.37840390e-03, 0.00000000e+00, 0.00000000e+00, 0.00000000e+00, -1.40254056e-01, 3.37840390e-03, -1.87302832e-01, 0.00000000e+00, -5.54412193e+01, 0.00000000e+00, 0.00000000e+00, -1.54192567e+01, 1.52485545e+02, 0.00000000e+00, -5.98442173e+00, -2.68321465e+00, -3.70538574e+00, -5.13507115e-01, 0.00000000e+00, -2.7392419337, 1.8819399624, 10.0000000000, 242.9017436099, 0.4756537875
         410, -1.87346879e-01, 3.33602186e-03, 0.00000000e+00, 0.00000000e+00, 0.00000000e+00, -1.40270005e-01, 3.33602186e-03, -1.87346879e-01, 0.00000000e+00, -5.61587686e+01, 0.00000000e+00, 0.00000000e+00, -1.53072202e+01, 1.52642672e+02, 0.00000000e+00, -6.01172796e+00, -2.71402950e+00, -3.72932554e+00, -5.40426370e-01, 0.00000000e+00, -2.7646440869, 1.9250708780, 10.0000000000, 250.7534869925, 0.4876024803
         420, -1.87388759e-01, 3.29534168e-03, 0.00000000e+00, 0.00000000e+00, 0.00000000e+00, -1.40284537e-01, 3.29534168e-03, -1.87388759e-01, 0.00000000e+00, -5.68647435e+01, 0.00000000e+00, 0.00000000e+00, -1.51997009e+01, 1.52798820e+02, 0.00000000e+00, -6.03633508e+00, -2.74497201e+00, -3.75133421e+00, -5.64998067e-01, 0.00000000e+00, -2.7887296695, 1.9647366647, 10.0000000000, 258.0271707014, 0.4993121664
         430, -1.87429051e-01, 3.25660915e-03, 0.00000000e+00, 0.00000000e+00, 0.00000000e+00, -1.40298345e-01, 3.25660915e-03, -1.87429051e-01, 0.00000000e+00, -5.75534375e+01, 0.00000000e+00, 0.00000000e+00, -1.50977711e+01, 1.52953123e+02, 0.00000000e+00, -6.05907222e+00, -2.77622208e+00, -3.77135321e+00, -5.87938052e-01, 0.00000000e+00, -2.8120641241, 2.0012669726, 10.0000000000, 264.9153368213, 0.5108867248
         440, -1.87468055e-01, 3.21999254e-03, 0.00000000e+00, 0.00000000e+00, 0.00000000e+00, -1.40311775e-01, 3.21999254e-03, -1.87468055e-01, 0.00000000e+00, -5.82200279e+01, 0.00000000e+00, 0.00000000e+00, -1.50020891e+01, 1.53104968e+02, 0.00000000e+00, -6.08060281e+00, -2.80791327e+00, -3.79026144e+00, -6.09841122e-01, 0.00000000e+00, -2.8349190746, 2.0351123061, 10.0000000000, 271.5948550351, 0.5227125883
         450, -1.87505982e-01, 3.18559004e-03, 0.00000000e+00, 0.00000000e+00, 0.00000000e+00, -1.40325051e-01, 3.18559004e-03, -1.87505982e-01, 0.00000000e+00, -5.88606755e+01, 0.00000000e+00, 0.00000000e+00, -1.49128027e+01, 1.53253973e+02, 0.00000000e+00, -6.10135750e+00, -2.84012920e+00, -3.80867125e+00, -6.31098838e-01, 0.00000000e+00, -2.8578056015, 2.0665495576, 10.0000000000, 278.1854272166, 0.5343600194
         460, -1.87542944e-01, 3.15344417e-03, 0.00000000e+00, 0.00000000e+00, 0.00000000e+00, -1.40338311e-01, 3.15344417e-03, -1.87542944e-01, 0.00000000e+00, -5.94724162e+01, 0.00000000e+00, 0.00000000e+00, -1.48295822e+01, 1.53399893e+02, 0.00000000e+00, -6.12149397e+00, -2.87294112e+00, -3.82646471e+00, -6.51823443e-01, 0.00000000e+00, -2.8811560470, 2.0957402527, 10.0000000000, 284.7277640941, 0.5459574302
         470, -1.87579037e-01, 3.12354743e-03, 0.00000000e+00, 0.00000000e+00, 0.00000000e+00, -1.40351658e-01, 3.12354743e-03, -1.87579037e-01, 0.00000000e+00, -6.00532058e+01, 0.00000000e+00, 0.00000000e+00, -1.47517248e+01, 1.53542633e+02, 0.00000000e+00, -6.14140787e+00, -2.90642097e+00, -3.84434219e+00, -6.72418669e-01, 0.00000000e+00, -2.9051468630, 2.1229619609, 10.0000000000, 291.3372133239, 0.5577477932
         480, -1.87614298e-01, 3.09584865e-03, 0.00000000e+00, 0.00000000e+00, 0.00000000e+00, -1.40365138e-01, 3.09584865e-03, -1.87614298e-01, 0.00000000e+00, -6.06018960e+01, 0.00000000e+00, 0.00000000e+00, -1.46782563e+01, 1.53682216e+02, 0.00000000e+00, -6.16126149e+00, -2.94063508e+00, -3.86202975e+00, -6.93009133e-01, 0.00000000e+00, -2.9301779912, 2.1483496525, 10.0000000000, 298.0650416487, 0.5693963408
         490, -1.87648936e-01, 3.07044578e-03, 0.00000000e+00, 0.00000000e+00, 0.00000000e+00, -1.40379450e-01, 3.07044578e-03, -1.87648936e-01, 0.00000000e+00, -6.11145577e+01, 0.00000000e+00, 0.00000000e+00, -1.46083213e+01, 1.53817287e+02, 0.00000000e+00, -6.18526582e+00, -2.97556960e+00, -3.88285056e+00, -7.17728992e-01, 0.00000000e+00, -2.9567642251, 2.1635714129, 10.0000000000, 299.7000000000, 0.5812724988
         500, -1.87682603e-01, 3.04751646e-03, 0.00000000e+00, 0.00000000e+00, 0.00000000e+00, -1.40394428e-01, 3.04751646e-03, -1.87682603e-01, 0.00000000e+00, -6.15854274e+01, 0.00000000e+00, 0.00000000e+00, -1.45419612e+01, 1.53946249e+02, 0.00000000e+00, -6.21398771e+00, -3.01084133e+00, -3.90879612e+00, -7.47030226e-01, 0.00000000e+00, -2.9843749004, 2.1753989292, 10.0000000000, 299.7000000000, 0.5929049293
         510, -1.87714869e-01, 3.02682162e-03, 0.00000000e+00, 0.00000000e+00, 0.00000000e+00, -1.40409272e-01, 3.02682162e-03, -1.87714869e-01, 0.00000000e+00, -6.20171561e+01, 0.00000000e+00, 0.00000000e+00, -1.44781256e+01, 1.54069866e+02, 0.00000000e+00, -6.24248191e+00, -3.04634645e+00, -3.93504801e+00, -7.76192407e-01, 0.00000000e+00, -3.0128300807, 2.1855611644, 10.0000000000, 299.7000000000, 0.6045554360
         520, -1.87745767e-01, 3.00812344e-03, 0.00000000e+00, 0.00000000e+00, 0.00000000e+00, -1.40424065e-01, 3.00812344e-03, -1.87745767e-01, 0.00000000e+00, -6.24129198e+01, 0.00000000e+00, 0.00000000e+00, -1.44157845e+01, 1.54188658e+02, 0.00000000e+00, -6.27215476e+00, -3.08211759e+00, -3.96217858e+00, -8.06602328e-01, 0.00000000e+00, -3.0423904631, 2.1941621627, 10.0000000000, 299.7000000000, 0.6163678249
         530, -1.87775121e-01, 2.99121333e-03, 0.00000000e+00, 0.00000000e+00, 0.00000000e+00, -1.40438431e-01, 2.99121333e-03, -1.87775121e-01, 0.00000000e+00, -6.27755698e+01, 0.00000000e+00, 0.00000000e+00, -1.43542296e+01, 1.54303093e+02, 0.00000000e+00, -6.30210103e+00, -3.11814550e+00, -3.99028552e+00, -8.37365080e-01, 0.00000000e+00, -3.0728810941, 2.2013878177, 10.0000000000, 299.7000000000, 0.6279796878
         540, -1.87803040e-01, 2.97590893e-03, 0.00000000e+00, 0.00000000e+00, 0.00000000e+00, -1.40452428e-01, 2.97590893e-03, -1.87803040e-01, 0.00000000e+00, -6.31077913e+01, 0.00000000e+00, 0.00000000e+00, -1.42929447e+01, 1.54413594e+02, 0.00000000e+00, -6.33145093e+00, -3.15446793e+00, -4.01785049e+00, -8.67681731e-01, 0.00000000e+00, -3.1040779811, 2.2072888862, 10.0000000000, 299.7000000000, 0.6396704872
         550, -1.87829675e-01, 2.96204824e-03, 0.00000000e+00, 0.00000000e+00, 0.00000000e+00, -1.40466259e-01, 2.96204824e-03, -1.87829675e-01, 0.00000000e+00, -6.34120918e+01, 0.00000000e+00, 0.00000000e+00, -1.42315741e+01, 1.54520539e+02, 0.00000000e+00, -6.36174609e+00, -3.19113981e+00, -4.04631998e+00, -8.99090509e-01, 0.00000000e+00, -3.1360698584, 2.2119893644, 10.0000000000, 299.7000000000, 0.6514686028
         560, -1.87854947e-01, 2.94948710e-03, 0.00000000e+00, 0.00000000e+00, 0.00000000e+00, -1.40479745e-01, 2.94948710e-03, -1.87854947e-01, 0.00000000e+00, -6.36907165e+01, 0.00000000e+00, 0.00000000e+00, -1.41698930e+01, 1.54624268e+02, 0.00000000e+00, -6.39244094e+00, -3.22811164e+00, -4.07570288e+00, -9.31031637e-01, 0.00000000e+00, -3.1688011330, 2.2156452364, 10.0000000000, 299.7000000000, 0.6629480561
         570, -1.87878919e-01, 2.93809731e-03, 0.00000000e+00, 0.00000000e+00, 0.00000000e+00, -1.40492923e-01, 2.93809731e-03, -1.87878919e-01, 0.00000000e+00, -6.39457781e+01, 0.00000000e+00, 0.00000000e+00, -1.41077780e+01, 1.54725077e+02, 0.00000000e+00, -6.42376648e+00, -3.26541041e+00, -4.10597599e+00, -9.63803790e-01, 0.00000000e+00, -3.2022329419, 2.2183165387, 10.0000000000, 299.7000000000, 0.6744495908
         580, -1.87901581e-01, 2.92776471e-03, 0.00000000e+00, 0.00000000e+00, 0.00000000e+00, -1.40505719e-01, 2.92776471e-03, -1.87901581e-01, 0.00000000e+00, -6.41791947e+01, 0.00000000e+00, 0.00000000e+00, -1.40451773e+01, 1.54823235e+02, 0.00000000e+00, -6.45580116e+00, -3.30302209e+00, -4.13716162e+00, -9.97515922e-01, 0.00000000e+00, -3.2363904150, 2.2201136537, 10.0000000000, 299.7000000000, 0.6861671527
         590, -1.87922917e-01, 2.91838746e-03, 0.00000000e+00, 0.00000000e+00, 0.00000000e+00, -1.40518014e-01, 2.91838746e-03, -1.87922917e-01, 0.00000000e+00, -6.43927235e+01, 0.00000000e+00, 0.00000000e+00, -1.39820993e+01, 1.54918979e+02, 0.00000000e+00, -6.48786380e+00, -3.34091906e+00, -4.16879423e+00, -1.03149461e+00, 0.00000000e+00, -3.2712116018, 2.2211166641, 10.0000000000, 299.7000000000, 0.6976811568
         600, -1.87943006e-01, 2.90987509e-03, 0.00000000e+00, 0.00000000e+00, 0.00000000e+00, -1.40529863e-01, 2.90987509e-03, -1.87943006e-01, 0.00000000e+00, -6.45879978e+01, 0.00000000e+00, 0.00000000e+00, -1.39186087e+01, 1.55012501e+02, 0.00000000e+00, -6.52025968e+00, -3.37909778e+00, -4.20104101e+00, -1.06612898e+00, 0.00000000e+00, -3.3066917685, 2.2213761561, 10.0000000000, 299.7000000000, 0.7091651162
         610, -1.87961851e-01, 2.90214733e-03, 0.00000000e+00, 0.00000000e+00, 0.00000000e+00, -1.40541188e-01, 2.90214733e-03, -1.87961851e-01, 0.00000000e+00, -6.47664744e+01, 0.00000000e+00, 0.00000000e+00, -1.38547943e+01, 1.55103957e+02, 0.00000000e+00, -6.55260427e+00, -3.41752704e+00, -4.23406235e+00, -1.10104442e+00, 0.00000000e+00, -3.3426696986, 2.2209874105, 10.0000000000, 299.7000000000, 0.7208493193
         620, -1.87979550e-01, 2.89513230e-03, 0.00000000e+00, 0.00000000e+00, 0.00000000e+00, -1.40552052e-01, 2.89513230e-03, -1.87979550e-01, 0.00000000e+00, -6.49295199e+01, 0.00000000e+00, 0.00000000e+00, -1.37907497e+01, 1.55193484e+02, 0.00000000e+00, -6.58465065e+00, -3.45625210e+00, -4.26696952e+00, -1.13606761e+00, 0.00000000e+00, -3.3788671544, 2.2199769988, 10.0000000000, 299.7000000000, 0.7324487845
         630, -1.87996157e-01, 2.88876502e-03, 0.00000000e+00, 0.00000000e+00, 0.00000000e+00, -1.40562479e-01, 2.88876502e-03, -1.87996157e-01, 0.00000000e+00, -6.50783832e+01, 0.00000000e+00, 0.00000000e+00, -1.37265692e+01, 1.55281201e+02, 0.00000000e+00, -6.61724898e+00, -3.49527992e+00, -4.30081386e+00, -1.17212204e+00, 0.00000000e+00, -3.4154245016, 2.2184211366, 10.0000000000, 299.7000000000, 0.7441132585
         640, -1.88011671e-01, 2.88298657e-03, 0.00000000e+00, 0.00000000e+00, 0.00000000e+00, -1.40572396e-01, 2.88298657e-03, -1.88011671e-01, 0.00000000e+00, -6.52142029e+01, 0.00000000e+00, 0.00000000e+00, -1.36623484e+01, 1.55367209e+02, 0.00000000e+00, -6.64994975e+00, -3.53455842e+00, -4.33552691e+00, -1.20882000e+00, 0.00000000e+00, -3.4523806467, 2.2163747487, 10.0000000000, 299.7000000000, 0.7558848222
         650, -1.88026135e-01, 2.87774343e-03, 0.00000000e+00, 0.00000000e+00, 0.00000000e+00, -1.40581797e-01, 2.87774343e-03, -1.88026135e-01, 0.00000000e+00, -6.53380469e+01, 0.00000000e+00, 0.00000000e+00, -1.35981816e+01, 1.55451574e+02, 0.00000000e+00, -6.68245466e+00, -3.57406158e+00, -4.37071596e+00, -1.24593227e+00, 0.00000000e+00, -3.4897264905, 2.2138715494, 10.0000000000, 299.7000000000, 0.7674283822
         660, -1.88039603e-01, 2.87298705e-03, 0.00000000e+00, 0.00000000e+00, 0.00000000e+00, -1.40590692e-01, 2.87298705e-03, -1.88039603e-01, 0.00000000e+00, -6.54509053e+01, 0.00000000e+00, 0.00000000e+00, -1.35341597e+01, 1.55534327e+02, 0.00000000e+00, -6.71467318e+00, -3.61378092e+00, -4.40642324e+00, -1.28344926e+00, 0.00000000e+00, -3.5274562986, 2.2109510685, 10.0000000000, 299.7000000000, 0.7788925091
         670, -1.88052123e-01, 2.86867324e-03, 0.00000000e+00, 0.00000000e+00, 0.00000000e+00, -1.40599087e-01, 2.86867324e-03, -1.88052123e-01, 0.00000000e+00, -6.55536922e+01, 0.00000000e+00, 0.00000000e+00, -1.34703683e+01, 1.55615531e+02, 0.00000000e+00, -6.74650142e+00, -3.65367873e+00, -4.44274797e+00, -1.32135014e+00, 0.00000000e+00, -3.5656444602, 2.2076508934, 10.0000000000, 299.7000000000, 0.7905967514
         680, -1.88063740e-01, 2.86476184e-03, 0.00000000e+00, 0.00000000e+00, 0.00000000e+00, -1.40606988e-01, 2.86476184e-03, -1.88063740e-01, 0.00000000e+00, -6.56472513e+01, 0.00000000e+00, 0.00000000e+00, -1.34068862e+01, 1.55695239e+02, 0.00000000e+00, -6.77797450e+00, -3.69375999e+00, -4.47955330e+00, -1.35979138e+00, 0.00000000e+00, -3.6041238667, 2.2040034165, 10.0000000000, 299.7000000000, 0.8021444519
         690, -1.88074492e-01, 2.86121624e-03, 0.00000000e+00, 0.00000000e+00, 0.00000000e+00, -1.40614380e-01, 2.86121624e-03, -1.88074492e-01, 0.00000000e+00, -6.57323586e+01, 0.00000000e+00, 0.00000000e+00, -1.33437842e+01, 1.55773466e+02, 0.00000000e+00, -6.80860236e+00, -3.73400166e+00, -4.51657167e+00, -1.39827394e+00, 0.00000000e+00, -3.6428333023, 2.2000419370, 10.0000000000, 299.7000000000, 0.8138163010
         700, -1.88084449e-01, 2.85800301e-03, 0.00000000e+00, 0.00000000e+00, 0.00000000e+00, -1.40621309e-01, 2.85800301e-03, -1.88084449e-01, 0.00000000e+00, -6.58097450e+01, 0.00000000e+00, 0.00000000e+00, -1.32811248e+01, 1.55850213e+02, 0.00000000e+00, -6.83829708e+00, -3.77442006e+00, -4.55359524e+00, -1.43680602e+00, 0.00000000e+00, -3.6816600690, 2.1957822478, 10.0000000000, 299.7000000000, 0.8253253063