TITLE = "SU2 Simulation"
VARIABLES = "Iteration","CL","CD","CSF","CMx","CMy","CMz","CFx","CFy","CFz","CL/CD","AoA","Custom_ObjFunc","HeatFlux_Total","HeatFlux_Maximum","Temperature_Total","Res_Flow[0]","Res_Flow[1]","Res_Flow[2]","Res_Flow[3]","Res_Flow[4]","Res_Turb[0]","Res_Turb[1]","Linear_Solver_Iterations","CFL_Number","Time(min)"
ZONE T= "Convergence history"
           0, 1.24720502e-02, 7.18380819e-02, 0.00000000e+00, 0.00000000e+00, 0.00000000e+00, 5.33444431e-03, 7.12770038e-02, 1.53574341e-02, 0.00000000e+00, 1.73613353e-01, 2.31000000e+00, 0.00000000e+00, -2.19431266e+05, 2.13060442e+05, 0.00000000e+00, -1.70011403e+00, -1.08158258e+01, -1.11206832e+01, 3.80541079e+00, 0.00000000e+00, -0.0606992188, 5.7028255745, 2.0000000000, 2.5000000000, 0.0013543646
          10, 1.98997020e-01, 2.25094162e-01, 0.00000000e+00, 0.00000000e+00, 0.00000000e+00, 7.50698842e-02, 2.16890434e-01, 2.07907997e-01, 0.00000000e+00, 8.84061224e-01, 2.31000000e+00, 0.00000000e+00, -5.42821235e+04, 6.41218993e+04, 0.00000000e+00, -2.22049723e+00, 2.01881854e-01, 2.90713394e-01, 3.28731088e+00, 0.00000000e+00, -0.4075990677, 4.9607174558, 8.0000000000, 4.5398603951, 0.0155930400
          20, 1.95860318e-01, 2.00997682e-01, 0.00000000e+00, 0.00000000e+00, 0.00000000e+00, 7.42359538e-02, 1.92939964e-01, 2.03802607e-01, 0.00000000e+00, 9.74440681e-01, 2.31000000e+00, 0.00000000e+00, -3.39422487e+04, 3.82189899e+04, 0.00000000e+00, -2.14511123e+00, 2.22782759e-01, 3.61703619e-01, 3.34742089e+00, 0.00000000e+00, -0.6622314980, 4.6017924059, 6.0000000000, 3.5842363669, 0.0297617118
          30, 1.91378762e-01, 1.72249126e-01, 0.00000000e+00, 0.00000000e+00, 0.00000000e+00, 7.46919674e-02, 1.64395405e-01, 1.98165948e-01, 0.00000000e+00, 1.11105795e+00, 2.31000000e+00, 0.00000000e+00, -2.58467034e+04, 2.72147776e+04, 0.00000000e+00, -2.09845321e+00, 2.83910061e-01, 3.86639918e-01, 3.38199414e+00, 0.00000000e+00, -0.8136045146, 4.4411991824, 6.0000000000, 3.0338978621, 0.0437402646
          40, 1.89235566e-01, 1.47891287e-01, 0.00000000e+00, 0.00000000e+00, 0.00000000e+00, 7.74839745e-02, 1.40143744e-01, 1.95042722e-01, 0.00000000e+00, 1.27955858e+00, 2.31000000e+00, 0.00000000e+00, -2.12374112e+04, 2.13709454e+04, 0.00000000e+00, -2.06026418e+00, 3.45152332e-01, 4.07197472e-01, 3.41002270e+00, 0.00000000e+00, -0.9216329998, 4.3317769823, 6.0000000000, 2.6522554755, 0.0577036381
          50, 1.89386835e-01, 1.30189703e-01, 0.00000000e+00, 0.00000000e+00, 0.00000000e+00, 8.15920718e-02, 1.22450447e-01, 1.94480385e-01, 0.00000000e+00, 1.45469904e+00, 2.31000000e+00, 0.00000000e+00, -1.81720820e+04, 1.77220716e+04, 0.00000000e+00, -2.02415574e+00, 3.82624481e-01, 4.16993750e-01, 3.43651475e+00, 0.00000000e+00, -1.0054758113, 4.2399773897, 6.0000000000, 2.5025000000, 0.0715767066
          60, 1.91266009e-01, 1.17629522e-01, 0.00000000e+00, 0.00000000e+00, 0.00000000e+00, 8.65462790e-02, 1.09824730e-01, 1.95851779e-01, 0.00000000e+00, 1.62600346e+00, 2.31000000e+00, 0.00000000e+00, -1.57898974e+04, 1.51932935e+04, 0.00000000e+00, -1.98556996e+00, 4.08316967e-01, 4.17018435e-01, 3.46792929e+00, 0.00000000e+00, -1.0788561840, 4.1657838701, 5.0000000000, 2.5025000000, 0.0850458066
          70, 1.93598143e-01, 1.09329300e-01, 0.00000000e+00, 0.00000000e+00, 0.00000000e+00, 9.12589124e-02, 1.01437254e-01, 1.97847467e-01, 0.00000000e+00, 1.77078005e+00, 2.31000000e+00, 0.00000000e+00, -1.38136413e+04, 1.35267535e+04, 0.00000000e+00, -1.94059880e+00, 4.39176343e-01, 4.20755517e-01, 3.50947782e+00, 0.00000000e+00, -1.1450606455, 4.1455583151, 5.0000000000, 2.5025000000, 0.0987963160
          80, 1.95069124e-01, 1.04286181e-01, 0.00000000e+00, 0.00000000e+00, 0.00000000e+00, 9.44432838e-02, 9.63389438e-02, 1.99113984e-01, 0.00000000e+00, 1.87051747e+00, 2.31000000e+00, 0.00000000e+00, -1.20984063e+04, 1.23582305e+04, 0.00000000e+00, -1.89293242e+00, 4.81003705e-01, 4.47110209e-01, 3.55537508e+00, 0.00000000e+00, -1.2053872153, 4.1033938827, 5.0000000000, 2.5025000000, 0.1123682578
          90, 1.96579976e-01, 1.01783429e-01, 0.00000000e+00, 0.00000000e+00, 0.00000000e+00, 9.54790221e-02, 9.37773288e-02, 2.00522732e-01, 0.00000000e+00, 1.93135540e+00, 2.31000000e+00, 0.00000000e+00, -1.05729405e+04, 1.13054043e+04, 0.00000000e+00, -1.85301191e+00, 5.21823629e-01, 4.84973098e-01, 3.59543464e+00, 0.00000000e+00, -1.2607597620, 4.0842026269, 5.0000000000, 2.5025000000, 0.1261700114
         100, 2.00100805e-01, 1.02067757e-01, 0.00000000e+00, 0.00000000e+00, 0.00000000e+00, 9.46193541e-02, 9.39195142e-02, 2.04052160e-01, 0.00000000e+00, 1.96047029e+00, 2.31000000e+00, 0.00000000e+00, -9.24822526e+03, 1.03244941e+04, 0.00000000e+00, -1.81682550e+00, 5.57292053e-01, 5.20137288e-01, 3.63055117e+00, 0.00000000e+00, -1.3122373479, 4.0698097742, 5.0000000000, 2.5025000000, 0.1396609386
         110, 2.04215623e-01, 1.05481289e-01, 0.00000000e+00, 0.00000000e+00, 0.00000000e+00, 9.32572070e-02, 9.71644200e-02, 2.08301221e-01, 0.00000000e+00, 1.93603647e+00, 2.31000000e+00, 0.00000000e+00, -8.13655022e+03, 9.54618713e+03, 0.00000000e+00, -1.78608773e+00, 5.86502301e-01, 5.49904937e-01, 3.65885979e+00, 0.00000000e+00, -1.3619974528, 4.0544861215, 5.0000000000, 2.5025000000, 0.1532898744
         120, 2.06510774e-01, 1.10602118e-01, 0.00000000e+00, 0.00000000e+00, 0.00000000e+00, 9.34215931e-02, 1.02188579e-01, 2.10800908e-01, 0.00000000e+00, 1.86715026e+00, 2.31000000e+00, 0.00000000e+00, -7.20831831e+03, 8.97701507e+03, 0.00000000e+00, -1.75916669e+00, 6.00017558e-01, 5.71654393e-01, 3.68047250e+00, 0.00000000e+00, -1.4128929326, 4.0553519265, 5.0000000000, 2.5025000000, 0.1670450449
         130, 2.09312913e-01, 1.14138164e-01, 0.00000000e+00, 0.00000000e+00, 0.00000000e+00, 9.61499346e-02, 1.05608808e-01, 2.13743294e-01, 0.00000000e+00, 1.83385561e+00, 2.31000000e+00, 0.00000000e+00, -6.41424630e+03, 8.45672414e+03, 0.00000000e+00, -1.73815649e+00, 5.97584763e-01, 5.81897184e-01, 3.69567797e+00, 0.00000000e+00, -1.4639769761, 4.0571966585, 5.0000000000, 2.5025000000, 0.1805091063
         140, 2.19567761e-01, 1.14299672e-01, 0.00000000e+00, 0.00000000e+00, 0.00000000e+00, 1.00816901e-01, 1.05356850e-01, 2.23996318e-01, 0.00000000e+00, 1.92098330e+00, 2.31000000e+00, 0.00000000e+00, -5.73192930e+03, 7.91427087e+03, 0.00000000e+00, -1.71735737e+00, 6.17429002e-01, 5.95414142e-01, 3.71417287e+00, 0.00000000e+00, -1.5099259170, 4.0478614666, 5.0000000000, 2.5025000000, 0.1940770626
         150, 2.38707469e-01, 1.11824052e-01, 0.00000000e+00, 0.00000000e+00, 0.00000000e+00, 1.07080857e-01, 1.02111794e-01, 2.43020690e-01, 0.00000000e+00, 2.13467017e+00, 2.31000000e+00, 0.00000000e+00, -5.16329703e+03, 7.43052879e+03, 0.00000000e+00, -1.70352101e+00, 6.27935683e-01, 6.08212094e-01, 3.72300825e+00, 0.00000000e+00, -1.5499206239, 4.0317397425, 5.0000000000, 2.5025000000, 0.2078074336
         160, 2.61310068e-01, 1.07693986e-01, 0.00000000e+00, 0.00000000e+00, 0.00000000e+00, 1.15401928e-01, 9.70740596e-02, 2.65438455e-01, 0.00000000e+00, 2.42641281e+00, 2.31000000e+00, 0.00000000e+00, -4.69949895e+03, 7.05037113e+03, 0.00000000e+00, -1.69523815e+00, 5.95696820e-01, 5.94671154e-01, 3.72047451e+00, 0.00000000e+00, -1.5874006006, 3.9972901764, 5.0000000000, 2.5025000000, 0.2215973417
         170, 2.84000573e-01, 1.02337900e-01, 0.00000000e+00, 0.00000000e+00, 0.00000000e+00, 1.25631452e-01, 9.08077588e-02, 2.87894638e-01, 0.00000000e+00, 2.77512605e+00, 2.31000000e+00, 0.00000000e+00, -4.32293417e+03, 6.70583313e+03, 0.00000000e+00, -1.68831696e+00, 5.60651361e-01, 5.63768118e-01, 3.71900958e+00, 0.00000000e+00, -1.6214587360, 3.9519975559, 5.0000000000, 2.5025000000, 0.2350494464
         180, 3.06709047e-01, 9.60134800e-02, 0.00000000e+00, 0.00000000e+00, 0.00000000e+00, 1.36619252e-01, 8.35731858e-02, 3.10329745e-01, 0.00000000e+00, 3.19443735e+00, 2.31000000e+00, 0.00000000e+00, -4.00264399e+03, 6.38516872e+03, 0.00000000e+00, -1.68256700e+00, 5.49077642e-01, 5.34380347e-01, 3.72092647e+00, 0.00000000e+00, -1.6475915144, 3.9338801323, 5.0000000000, 2.5025000000, 0.2487932603
         190, 3.29315353e-01, 8.91022433e-02, 0.00000000e+00, 0.00000000e+00, 0.00000000e+00, 1.46973995e-01, 7.57563913e-02, 3.32639115e-01, 0.00000000e+00, 3.69592663e+00, 2.31000000e+00, 0.00000000e+00, -3.71032754e+03, 6.16902276e+03, 0.00000000e+00, -1.67722796e+00, 5.50667163e-01, 5.12995478e-01, 3.72459290e+00, 0.00000000e+00, -1.6605410660, 3.9161572046, 5.0000000000, 2.5025000000, 0.2623539964
         200, 3.50367010e-01, 8.20712194e-02, 0.00000000e+00, 0.00000000e+00, 0.00000000e+00, 1.55762392e-01, 6.78825690e-02, 3.53390271e-01, 0.00000000e+00, 4.26906061e+00, 2.31000000e+00, 0.00000000e+00, -3.43231776e+03, 6.11391380e+03, 0.00000000e+00, -1.67313305e+00, 5.56845521e-01, 5.02970002e-01, 3.72777414e+00, 0.00000000e+00, -1.6580302758, 3.9200902817, 5.0000000000, 2.5025000000, 0.2759036620
         210, 3.68120444e-01, 7.56662802e-02, 0.00000000e+00, 0.00000000e+00, 0.00000000e+00, 1.62432436e-01, 6.07672615e-02, 3.70871119e-01, 0.00000000e+00, 4.86505274e+00, 2.31000000e+00, 0.00000000e+00, -3.16889131e+03, 6.14544178e+03, 0.00000000e+00, -1.66952238e+00, 5.65690278e-01, 5.00823272e-01, 3.73095133e+00, 0.00000000e+00, -1.6427663442, 3.9447847986, 5.0000000000, 2.5025000000, 0.2894255996
         220, 3.81329672e-01, 7.06077664e-02, 0.00000000e+00, 0.00000000e+00, 0.00000000e+00, 1.66507031e-01, 5.51804448e-02, 3.83865724e-01, 0.00000000e+00, 5.40067604e+00, 2.31000000e+00, 0.00000000e+00, -2.92252344e+03, 6.11900318e+03, 0.00000000e+00, -1.66884955e+00, 5.67154238e-01, 4.93908311e-01, 3.73054375e+00, 0.00000000e+00, -1.6210158884, 3.9684812418, 5.0000000000, 2.5012216599, 0.3029060046
         230, 3.90126677e-01, 6.68514262e-02, 0.00000000e+00, 0.00000000e+00, 0.00000000e+00, 1.67960108e-01, 5.10725834e-02, 3.92504176e-01, 0.00000000e+00, 5.83572706e+00, 2.31000000e+00, 0.00000000e+00, -2.69593748e+03, 5.97063023e+03, 0.00000000e+00, -1.66775517e+00, 5.52111660e-01, 4.77976711e-01, 3.72946323e+00, 0.00000000e+00, -1.6018962992, 3.9755134007, 5.0000000000, 2.5007848484, 0.3164065043
         240, 3.96734517e-01, 6.36384780e-02, 0.00000000e+00, 0.00000000e+00, 0.00000000e+00, 1.67593210e-01, 4.75959093e-02, 3.98977145e-01, 0.00000000e+00, 6.23419241e+00, 2.31000000e+00, 0.00000000e+00, -2.49357212e+03, 5.77449248e+03, 0.00000000e+00, -1.66731855e+00, 5.27126704e-01, 4.65986791e-01, 3.72831824e+00, 0.00000000e+00, -1.5926100800, 3.9757107879, 5.0000000000, 2.5011151187, 0.3300044378
         250, 4.04542334e-01, 6.02978265e-02, 0.00000000e+00, 0.00000000e+00, 0.00000000e+00, 1.66898573e-01, 4.39432692e-02, 4.06643968e-01, 0.00000000e+00, 6.70906992e+00, 2.31000000e+00, 0.00000000e+00, -2.32078679e+03, 5.59976731e+03, 0.00000000e+00, -1.66833841e+00, 5.04377341e-01, 4.68267436e-01, 3.72663801e+00, 0.00000000e+00, -1.5863301734, 3.9743431340, 5.0000000000, 2.5038311874, 0.3434424003
         260, 4.16259443e-01, 5.66671000e-02, 0.00000000e+00, 0.00000000e+00, 0.00000000e+00, 1.67341769e-01, 3.98432211e-02, 4.18205215e-01, 0.00000000e+00, 7.34569872e+00, 2.31000000e+00, 0.00000000e+00, -2.18251265e+03, 5.42560331e+03, 0.00000000e+00, -1.66907089e+00, 4.86033581e-01, 4.72712318e-01, 3.72512334e+00, 0.00000000e+00, -1.5776001365, 3.9956863752, 5.0000000000, 2.5060302878, 0.3568329016
         270, 4.32955747e-01, 5.28118263e-02, 0.00000000e+00, 0.00000000e+00, 0.00000000e+00, 1.69593906e-01, 3.53181160e-02, 4.34732559e-01, 0.00000000e+00, 8.19808321e+00, 2.31000000e+00, 0.00000000e+00, -2.07618355e+03, 5.27666488e+03, 0.00000000e+00, -1.66967914e+00, 4.80488561e-01, 4.70722172e-01, 3.72424168e+00, 0.00000000e+00, -1.5691057697, 4.0238735931, 5.0000000000, 2.5080210694, 0.3705756466
         280, 4.53757960e-01, 4.87262150e-02, 0.00000000e+00, 0.00000000e+00, 0.00000000e+00, 1.73121644e-01, 3.03973669e-02, 4.55353193e-01, 0.00000000e+00, 9.31239909e+00, 2.31000000e+00, 0.00000000e+00, -2.00457122e+03, 5.23156621e+03, 0.00000000e+00, -1.66805816e+00, 4.93063336e-01, 4.67210698e-01, 3.72683803e+00, 0.00000000e+00, -1.5602023070, 4.0382639995, 5.0000000000, 2.5002403178, 0.3841872811
         290, 4.76228044e-01, 4.43952508e-02, 0.00000000e+00, 0.00000000e+00, 0.00000000e+00, 1.76526016e-01, 2.51642388e-02, 4.77630452e-01, 0.00000000e+00, 1.07270043e+01, 2.31000000e+00, 0.00000000e+00, -1.96667585e+03, 5.29107923e+03, 0.00000000e+00, -1.66456483e+00, 5.10756054e-01, 4.66495044e-01, 3.73252132e+00, 0.00000000e+00, -1.5519509167, 4.0236043384, 5.0000000000, 2.5025000000, 0.3978462974
         300, 4.97343311e-01, 4.00312404e-02, 0.00000000e+00, 0.00000000e+00, 0.00000000e+00, 1.78332528e-01, 1.99526990e-02, 4.98552664e-01, 0.00000000e+00, 1.24238796e+01, 2.31000000e+00, 0.00000000e+00, -1.95616163e+03, 5.36994331e+03, 0.00000000e+00, -1.66045039e+00, 5.20815289e-01, 4.67401400e-01, 3.73890821e+00, 0.00000000e+00, -1.5437438740, 4.0187610115, 5.0000000000, 2.5025000000, 0.4119702299
         310, 5.14587761e-01, 3.61256983e-02, 0.00000000e+00, 0.00000000e+00, 0.00000000e+00, 1.77660579e-01, 1.53552726e-02, 5.15625684e-01, 0.00000000e+00, 1.42443685e+01, 2.31000000e+00, 0.00000000e+00, -1.96562048e+03, 5.44459045e+03, 0.00000000e+00, -1.65538125e+00, 5.22893648e-01, 4.70326898e-01, 3.74529259e+00, 0.00000000e+00, -1.5392223567, 4.0020411710, 5.0000000000, 2.5025000000, 0.4256089489
         320, 5.26600118e-01, 3.32461013e-02, 0.00000000e+00, 0.00000000e+00, 0.00000000e+00, 1.74523427e-01, 1.19938433e-02, 5.27512214e-01, 0.00000000e+00, 1.58394548e+01, 2.31000000e+00, 0.00000000e+00, -1.97327611e+03, 5.48018378e+03, 0.00000000e+00, -1.65104034e+00, 5.23766620e-01, 4.86073466e-01, 3.74911089e+00, 0.00000000e+00, -1.5402369269, 3.9993421580, 5.0000000000, 2.5025000000, 0.4390204430
         330, 5.33032903e-01, 3.16844569e-02, 0.00000000e+00, 0.00000000e+00, 0.00000000e+00, 1.69651508e-01, 1.01741870e-02, 5.33876827e-01, 0.00000000e+00, 1.68231668e+01, 2.31000000e+00, 0.00000000e+00, -1.98137214e+03, 5.49861716e+03, 0.00000000e+00, -1.65005051e+00, 5.28578013e-01, 5.19000515e-01, 3.74757982e+00, 0.00000000e+00, -1.5439640168, 3.9998610329, 5.0000000000, 2.5006318393, 0.4524932702
         340, 5.34840791e-01, 3.12564286e-02, 0.00000000e+00, 0.00000000e+00, 0.00000000e+00, 1.64383854e-01, 9.67363738e-03, 5.35665994e-01, 0.00000000e+00, 1.71113853e+01, 2.31000000e+00, 0.00000000e+00, -1.96186230e+03, 5.44356474e+03, 0.00000000e+00, -1.64935772e+00, 5.36333108e-01, 5.47971677e-01, 3.74536230e+00, 0.00000000e+00, -1.5456506891, 3.9766955448, 5.0000000000, 2.5025000000, 0.4654389461
         350, 5.34165151e-01, 3.13248270e-02, 0.00000000e+00, 0.00000000e+00, 0.00000000e+00, 1.60203054e-01, 9.76921266e-03, 5.34993660e-01, 0.00000000e+00, 1.70524534e+01, 2.31000000e+00, 0.00000000e+00, -1.92633311e+03, 5.34099140e+03, 0.00000000e+00, -1.64296095e+00, 5.39357116e-01, 5.49066179e-01, 3.75075061e+00, 0.00000000e+00, -1.5416877710, 4.0247477820, 5.0000000000, 2.5025000000, 0.4785639922
         360, 5.34160240e-01, 3.10999060e-02, 0.00000000e+00, 0.00000000e+00, 0.00000000e+00, 1.58236466e-01, 9.54467245e-03, 5.34979687e-01, 0.00000000e+00, 1.71756223e+01, 2.31000000e+00, 0.00000000e+00, -1.85765700e+03, 5.19291187e+03, 0.00000000e+00, -1.63000538e+00, 5.30829013e-01, 5.20660216e-01, 3.76448456e+00, 0.00000000e+00, -1.5313907634, 3.9957681933, 5.0000000000, 2.5025000000, 0.4914351980
         370, 5.37628610e-01, 3.00299167e-02, 0.00000000e+00, 0.00000000e+00, 0.00000000e+00, 1.58679343e-01, 8.33575583e-03, 5.38402111e-01, 0.00000000e+00, 1.79031003e+01, 2.31000000e+00, 0.00000000e+00, -1.76693564e+03, 5.07431815e+03, 0.00000000e+00, -1.61603796e+00, 5.20312749e-01, 4.97335387e-01, 3.77993087e+00, 0.00000000e+00, -1.5201643899, 4.0655719681, 6.0000000000, 2.5025000000, 0.5043037057
         380, 5.46025028e-01, 2.80637532e-02, 0.00000000e+00, 0.00000000e+00, 0.00000000e+00, 1.60951261e-01, 6.03276256e-03, 5.46712457e-01, 0.00000000e+00, 1.94565931e+01, 2.31000000e+00, 0.00000000e+00, -1.67059142e+03, 4.96378287e+03, 0.00000000e+00, -1.60581547e+00, 5.28016933e-01, 5.23257979e-01, 3.79194409e+00, 0.00000000e+00, -1.5113768012, 4.0614224813, 6.0000000000, 2.5025000000, 0.5182907065
         390, 5.59039628e-01, 2.55351952e-02, 0.00000000e+00, 0.00000000e+00, 0.00000000e+00, 1.64101894e-01, 2.98169039e-03, 5.59614565e-01, 0.00000000e+00, 2.18929060e+01, 2.31000000e+00, 0.00000000e+00, -1.55106160e+03, 4.90619949e+03, 0.00000000e+00, -1.59893423e+00, 5.50894739e-01, 5.74090794e-01, 3.79977657e+00, 0.00000000e+00, -1.5086802319, 4.1065533406, 6.0000000000, 2.5025000000, 0.5316801389
         400, 5.75050653e-01, 2.29716274e-02, 0.00000000e+00, 0.00000000e+00, 0.00000000e+00, 1.67192148e-01, -2.25137438e-04, 5.75509252e-01, 0.00000000e+00, 2.50330829e+01, 2.31000000e+00, 0.00000000e+00, -1.47606867e+03, 4.73752997e+03, 0.00000000e+00, -1.59255952e+00, 5.67832438e-01, 5.98369184e-01, 3.80509198e+00, 0.00000000e+00, -1.5094635236, 4.0951476985, 6.0000000000, 2.5025000000, 0.5450765252
         410, 5.92295695e-01, 2.07720305e-02, 0.00000000e+00, 0.00000000e+00, 0.00000000e+00, 1.69576871e-01, -3.11802872e-03, 5.92651622e-01, 0.00000000e+00, 2.85140971e+01, 2.31000000e+00, 0.00000000e+00, -1.38559620e+03, 4.68823166e+03, 0.00000000e+00, -1.58421950e+00, 5.79028677e-01, 5.77449893e-01, 3.81196198e+00, 0.00000000e+00, -1.5165823075, 4.1121224640, 6.0000000000, 2.5025000000, 0.5584243298
         420, 6.09179918e-01, 1.91274152e-02, 0.00000000e+00, 0.00000000e+00, 0.00000000e+00, 1.70803856e-01, -5.44184624e-03, 6.09455837e-01, 0.00000000e+00, 3.18485228e+01, 2.31000000e+00, 0.00000000e+00, -1.36103986e+03, 4.56487246e+03, 0.00000000e+00, -1.57393647e+00, 6.06504199e-01, 5.30593307e-01, 3.82366596e+00, 0.00000000e+00, -1.5255238741, 4.1291793321, 6.0000000000, 2.5025000000, 0.5716966232
         430, 6.24674796e-01, 1.80634534e-02, 0.00000000e+00, 0.00000000e+00, 0.00000000e+00, 1.70671635e-01, -7.12948284e-03, 6.24895239e-01, 0.00000000e+00, 3.45822464e+01, 2.31000000e+00, 0.00000000e+00, -1.33522047e+03, 4.81860356e+03, 0.00000000e+00, -1.56438295e+00, 6.48207259e-01, 5.18499675e-01, 3.83719957e+00, 0.00000000e+00, -1.5342592335, 4.1099265157, 6.0000000000, 2.5025000000, 0.5849160989
         440, 6.38204378e-01, 1.74650217e-02, 0.00000000e+00, 0.00000000e+00, 0.00000000e+00, 1.69061476e-01, -8.27275404e-03, 6.38389706e-01, 0.00000000e+00, 3.65418600e+01, 2.31000000e+00, 0.00000000e+00, -1.33312661e+03, 4.65448713e+03, 0.00000000e+00, -1.55796508e+00, 6.72477992e-01, 5.63161749e-01, 3.84548320e+00, 0.00000000e+00, -1.5448789308, 4.1781219604, 5.0000000000, 2.5025000000, 0.5980080207
         450, 6.49642026e-01, 1.72888034e-02, 0.00000000e+00, 0.00000000e+00, 0.00000000e+00, 1.66065361e-01, -8.90983709e-03, 6.49810957e-01, 0.00000000e+00, 3.75758814e+01, 2.31000000e+00, 0.00000000e+00, -1.33674873e+03, 4.74710514e+03, 0.00000000e+00, -1.55416447e+00, 6.57017588e-01, 6.06851386e-01, 3.84587396e+00, 0.00000000e+00, -1.5561702851, 4.1207423444, 5.0000000000, 2.5025000000, 0.6107710838
         460, 6.59155297e-01, 1.74854182e-02, 0.00000000e+00, 0.00000000e+00, 0.00000000e+00, 1.61890972e-01, -9.09682576e-03, 6.59324422e-01, 0.00000000e+00, 3.76974283e+01, 2.31000000e+00, 0.00000000e+00, -1.33953155e+03, 4.67335300e+03, 0.00000000e+00, -1.55014814e+00, 6.02451122e-01, 6.15717032e-01, 3.84321845e+00, 0.00000000e+00, -1.5653677933, 4.1682898401, 5.0000000000, 2.5025000000, 0.6238867084
         470, 6.66747538e-01, 1.79161335e-02, 0.00000000e+00, 0.00000000e+00, 0.00000000e+00, 1.56817788e-01, -8.97247468e-03, 6.66927853e-01, 0.00000000e+00, 3.72149235e+01, 2.31000000e+00, 0.00000000e+00, -1.35138271e+03, 4.27944665e+03, 0.00000000e+00, -1.54371022e+00, 5.33843077e-01, 5.94824357e-01, 3.84445000e+00, 0.00000000e+00, -1.5688545485, 4.1365170971, 5.0000000000, 2.5025000000, 0.6366849383
         480, 6.72906568e-01, 1.84741437e-02, 0.00000000e+00, 0.00000000e+00, 0.00000000e+00, 1.51435379e-01, -8.66316500e-03, 6.73104370e-01, 0.00000000e+00, 3.64242360e+01, 2.31000000e+00, 0.00000000e+00, -1.34919529e+03, 4.22173469e+03, 0.00000000e+00, -1.53505967e+00, 4.94616534e-01, 5.68433767e-01, 3.85167795e+00, 0.00000000e+00, -1.5636652404, 4.1394999675, 5.0000000000, 2.5025000000, 0.6496708552
         490, 6.78271787e-01, 1.90106884e-02, 0.00000000e+00, 0.00000000e+00, 0.00000000e+00, 1.46362531e-01, -8.34330775e-03, 6.78486855e-01, 0.00000000e+00, 3.56784443e+01, 2.31000000e+00, 0.00000000e+00, -1.37462446e+03, 3.92212766e+03, 0.00000000e+00, -1.52603813e+00, 4.99041661e-01, 5.61131443e-01, 3.86147846e+00, 0.00000000e+00, -1.5516839776, 4.1256539340, 5.0000000000, 2.5025000000, 0.6629496495
         500, 6.83345422e-01, 1.93492137e-02, 0.00000000e+00, 0.00000000e+00, 0.00000000e+00, 1.42031226e-01, -8.20955642e-03, 6.83570012e-01, 0.00000000e+00, 3.53164440e+01, 2.31000000e+00, 0.00000000e+00, -1.37680732e+03, 3.93702659e+03, 0.00000000e+00, -1.51804256e+00, 5.18483378e-01, 5.74581185e-01, 3.86999646e+00, 0.00000000e+00, -1.5382718059, 4.1286909841, 5.0000000000, 2.5025000000, 0.6758034428
         510, 6.88776717e-01, 1.94932868e-02, 0.00000000e+00, 0.00000000e+00, 0.00000000e+00, 1.38658034e-01, -8.28451520e-03, 6.89002700e-01, 0.00000000e+00, 3.53340473e+01, 2.31000000e+00, 0.00000000e+00, -1.37916786e+03, 3.87977732e+03, 0.00000000e+00, -1.51095972e+00, 5.33505049e-01, 5.94331588e-01, 3.87645232e+00, 0.00000000e+00, -1.5263275249, 4.1077055595, 5.0000000000, 2.5025000000, 0.6887504339
         520, 6.94687747e-01, 1.94872587e-02, 0.00000000e+00, 0.00000000e+00, 0.00000000e+00, 1.36050596e-01, -8.52878949e-03, 6.94908684e-01, 0.00000000e+00, 3.56483054e+01, 2.31000000e+00, 0.00000000e+00, -1.37930059e+03, 3.83571620e+03, 0.00000000e+00, -1.50375455e+00, 5.43603217e-01, 6.12361583e-01, 3.88245505e+00, 0.00000000e+00, -1.5194764497, 4.0770170662, 5.0000000000, 2.5025000000, 0.7017582178
         530, 7.00616036e-01, 1.94222245e-02, 0.00000000e+00, 0.00000000e+00, 0.00000000e+00, 1.33725580e-01, -8.83271746e-03, 7.00829534e-01, 0.00000000e+00, 3.60729037e+01, 2.31000000e+00, 0.00000000e+00, -1.35889782e+03, 3.86316001e+03, 0.00000000e+00, -1.49583304e+00, 5.53047366e-01, 6.30445459e-01, 3.88928796e+00, 0.00000000e+00, -1.5182838379, 4.0966242682, 5.0000000000, 2.5025000000, 0.7149093946
         540, 7.05877863e-01, 1.94065450e-02, 0.00000000e+00, 0.00000000e+00, 0.00000000e+00, 1.31194300e-01, -9.06046847e-03, 7.06086453e-01, 0.00000000e+00, 3.63731857e+01, 2.31000000e+00, 0.00000000e+00, -1.32493340e+03, 3.84279273e+03, 0.00000000e+00, -1.48758220e+00, 5.62639832e-01, 6.51608242e-01, 3.89662443e+00, 0.00000000e+00, -1.5178008333, 4.0423635202, 5.0000000000, 2.5025000000, 0.7279747526
         550, 7.10259012e-01, 1.95777547e-02, 0.00000000e+00, 0.00000000e+00, 0.00000000e+00, 1.28226356e-01, -9.06598521e-03, 7.10470942e-01, 0.00000000e+00, 3.62788798e+01, 2.31000000e+00, 0.00000000e+00, -1.28636242e+03, 3.88913756e+03, 0.00000000e+00, -1.47980055e+00, 5.72255970e-01, 6.74595921e-01, 3.90350617e+00, 0.00000000e+00, -1.5097830640, 4.0542723963, 5.0000000000, 2.5025000000, 0.7408562779
         560, 7.13507601e-01, 1.99803679e-02, 0.00000000e+00, 0.00000000e+00, 0.00000000e+00, 1.24741879e-01, -8.79463746e-03, 7.13733120e-01, 0.00000000e+00, 3.57104336e+01, 2.31000000e+00, 0.00000000e+00, -1.25415580e+03, 3.92286311e+03, 0.00000000e+00, -1.47315413e+00, 5.84648616e-01, 6.96320775e-01, 3.90941587e+00, 0.00000000e+00, -1.4916711220, 4.0150514691, 5.0000000000, 2.5025000000, 0.7537027359
         570, 7.15595904e-01, 2.05598516e-02, 0.00000000e+00, 0.00000000e+00, 0.00000000e+00, 1.20799900e-01, -8.29979617e-03, 7.15843082e-01, 0.00000000e+00, 3.48054994e+01, 2.31000000e+00, 0.00000000e+00, -1.21657116e+03, 3.97548532e+03, 0.00000000e+00, -1.46803946e+00, 6.04035532e-01, 7.16030308e-01, 3.91446364e+00, 0.00000000e+00, -1.4642035389, 4.0358415063, 5.0000000000, 2.5025000000, 0.7665719231
         580, 7.16458239e-01, 2.12336479e-02, 0.00000000e+00, 0.00000000e+00, 0.00000000e+00, 1.16480410e-01, -7.66130485e-03, 7.16731875e-01, 0.00000000e+00, 3.37416464e+01, 2.31000000e+00, 0.00000000e+00, -1.18523815e+03, 4.02606738e+03, 0.00000000e+00, -1.46476263e+00, 6.31953249e-01, 7.35662430e-01, 3.91895658e+00, 0.00000000e+00, -1.4286903481, 3.9817481795, 5.0000000000, 2.5025000000, 0.7793447057
         590, 7.16325814e-01, 2.19376503e-02, 0.00000000e+00, 0.00000000e+00, 0.00000000e+00, 1.11914229e-01, -6.95253705e-03, 7.16627933e-01, 0.00000000e+00, 3.26528049e+01, 2.31000000e+00, 0.00000000e+00, -1.16088952e+03, 4.06738032e+03, 0.00000000e+00, -1.46404075e+00, 6.65385015e-01, 7.55798580e-01, 3.92268830e+00, 0.00000000e+00, -1.3886020122, 3.9880952996, 5.0000000000, 2.5026517304, 0.7921930234
         600, 7.15096818e-01, 2.26158166e-02, 0.00000000e+00, 0.00000000e+00, 0.00000000e+00, 1.07128452e-01, -6.22538566e-03, 7.15427270e-01, 0.00000000e+00, 3.16193234e+01, 2.31000000e+00, 0.00000000e+00, -1.15354905e+03, 4.10650532e+03, 0.00000000e+00, -1.46794180e+00, 6.98294951e-01, 7.71568270e-01, 3.92385482e+00, 0.00000000e+00, -1.3411869053, 3.9454697357, 5.0000000000, 2.5121605066, 0.8049719691
         610, 7.12859905e-01, 2.32820405e-02, 0.00000000e+00, 0.00000000e+00, 0.00000000e+00, 1.02272604e-01, -5.46954175e-03, 7.13219028e-01, 0.00000000e+00, 3.06184463e+01, 2.31000000e+00, 0.00000000e+00, -1.14182884e+03, 4.14908267e+03, 0.00000000e+00, -1.48028031e+00, 7.24225674e-01, 7.73287288e-01, 3.91862367e+00, 0.00000000e+00, -1.2886804236, 3.9369280971, 5.0000000000, 2.5450114310, 0.8180427909
         620, 7.09994155e-01, 2.40393817e-02, 0.00000000e+00, 0.00000000e+00, 0.00000000e+00, 9.76857257e-02, -4.59730847e-03, 7.10386132e-01, 0.00000000e+00, 2.95346262e+01, 2.31000000e+00, 0.00000000e+00, -1.13216841e+03, 4.20170709e+03, 0.00000000e+00, -1.50584448e+00, 7.37852763e-01, 7.49993639e-01, 3.90194007e+00, 0.00000000e+00, -1.2305029969, 3.9123658987, 5.0000000000, 2.6163990098, 0.8310875972
         630, 7.07439059e-01, 2.50560489e-02, 0.00000000e+00, 0.00000000e+00, 0.00000000e+00, 9.39505770e-02, -3.47848129e-03, 7.07874090e-01, 0.00000000e+00, 2.82342624e+01, 2.31000000e+00, 0.00000000e+00, -1.11902484e+03, 4.26728757e+03, 0.00000000e+00, -1.54883664e+00, 7.34919199e-01, 6.91597106e-01, 3.86879858e+00, 0.00000000e+00, -1.1711200972, 3.9022152582, 5.0000000000, 2.7432367960, 0.8442495823
         640, 7.06274507e-01, 2.64253454e-02, 0.00000000e+00, 0.00000000e+00, 0.00000000e+00, 9.17420820e-02, -2.06335886e-03, 7.06765676e-01, 0.00000000e+00, 2.67271627e+01, 2.31000000e+00, 0.00000000e+00, -1.10505726e+03, 4.34171924e+03, 0.00000000e+00, -1.61032610e+00, 7.11587889e-01, 5.93261916e-01, 3.81552142e+00, 0.00000000e+00, -1.1146942027, 3.8753912692, 5.0000000000, 2.9387050876, 0.8571448684
         650, 7.07733786e-01, 2.80280756e-02, 0.00000000e+00, 0.00000000e+00, 0.00000000e+00, 9.17277645e-02, -5.20749056e-04, 7.08288369e-01, 0.00000000e+00, 2.52508876e+01, 2.31000000e+00, 0.00000000e+00, -1.07201368e+03, 4.40834785e+03, 0.00000000e+00, -1.68174870e+00, 6.65029234e-01, 4.85139011e-01, 3.74369990e+00, 0.00000000e+00, -1.0652168772, 3.8629723310, 5.0000000000, 3.1901748617, 0.8700686336
         660, 7.12386644e-01, 2.93797945e-02, 0.00000000e+00, 0.00000000e+00, 0.00000000e+00, 9.40523508e-02, 6.42332413e-04, 7.12991929e-01, 0.00000000e+00, 2.42475026e+01, 2.31000000e+00, 0.00000000e+00, -1.01608283e+03, 4.43995982e+03, 0.00000000e+00, -1.73714645e+00, 5.99432328e-01, 4.71596406e-01, 3.67138350e+00, 0.00000000e+00, -1.0209895693, 3.8464554199, 6.0000000000, 3.4119971871, 0.8829850952
         670, 7.19145495e-01, 2.98360161e-02, 0.00000000e+00, 0.00000000e+00, 0.00000000e+00, 9.77178849e-02, 8.25759830e-04, 7.19763676e-01, 0.00000000e+00, 2.41032681e+01, 2.31000000e+00, 0.00000000e+00, -9.46578114e+02, 4.42995171e+03, 0.00000000e+00, -1.75951809e+00, 5.35593922e-01, 5.36511755e-01, 3.62891285e+00, 0.00000000e+00, -0.9844033263, 3.8100823358, 6.0000000000, 3.5117026730, 0.8965801557
         680, 7.24692092e-01, 2.90817827e-02, 0.00000000e+00, 0.00000000e+00, 0.00000000e+00, 1.00673198e-01, -1.51422884e-04, 7.25275365e-01, 0.00000000e+00, 2.49191083e+01, 2.31000000e+00, 0.00000000e+00, -8.77792729e+02, 4.40620575e+03, 0.00000000e+00, -1.77819698e+00, 4.92835380e-01, 5.70124332e-01, 3.60662544e+00, 0.00000000e+00, -0.9534029503, 3.7939434981, 6.0000000000, 3.5815184620, 0.9100533565
         690, 7.25503983e-01, 2.73156421e-02, 0.00000000e+00, 0.00000000e+00, 0.00000000e+00, 1.00926994e-01, -1.94885244e-03, 7.26015410e-01, 0.00000000e+00, 2.65600193e+01, 2.31000000e+00, 0.00000000e+00, -8.12597095e+02, 4.40171851e+03, 0.00000000e+00, -1.83021255e+00, 4.54448901e-01, 5.40515586e-01, 3.56069727e+00, 0.00000000e+00, -0.9227880060, 3.7728984898, 7.0000000000, 3.7832882782, 0.9237188896
         700, 7.19391295e-01, 2.50081992e-02, 0.00000000e+00, 0.00000000e+00, 0.00000000e+00, 9.71028705e-02, -4.00804118e-03, 7.19814685e-01, 0.00000000e+00, 2.87662174e+01, 2.31000000e+00, 0.00000000e+00, -7.64566900e+02, 4.43928886e+03, 0.00000000e+00, -1.92755015e+00, 3.86315863e-01, 4.40900386e-01, 3.46515205e+00, 0.00000000e+00, -0.8820785659, 3.7584176429, 8.0000000000, 4.2134821007, 0.9375645081
         710, 7.06733318e-01, 2.28042530e-02, 0.00000000e+00, 0.00000000e+00, 0.00000000e+00, 8.94200269e-02, -5.70000164e-03, 7.07078162e-01, 0.00000000e+00, 3.09912944e+01, 2.31000000e+00, 0.00000000e+00, -7.40822529e+02, 4.53106267e+03, 0.00000000e+00, -2.01702047e+00, 2.75842264e-01, 2.94979992e-01, 3.36868244e+00, 0.00000000e+00, -0.8391609331, 3.7398256053, 8.0000000000, 4.7028475590, 0.9518253446