TITLE = "SU2 Simulation"
VARIABLES = "Iteration","CL","CD","CSF","CMx","CMy","CMz","CFx","CFy","CFz","CL/CD","AoA","Custom_ObjFunc","HeatFlux_Total","HeatFlux_Maximum","Temperature_Total","Res_Flow[0]","Res_Flow[1]","Res_Flow[2]","Res_Flow[3]","Res_Flow[4]"," Res_Turb[0]"," Res_Turb[1]"," Res_Turb[2]"," Res_Turb[3]","Linear_Solver_Iterations","CFL_Number","Time(min)"
ZONE T= "Convergence history"
           0, -4.00000039e-01, 2.01249574e-01, 0.00000000e+00, 0.00000000e+00, 0.00000000e+00, -3.00000136e-01, 2.01249574e-01, -4.00000039e-01, 0.00000000e+00, -1.98758204e+00, 0.00000000e+00, 0.00000000e+00, -8.74672963e+04, 7.87986306e+04, 0.00000000e+00, -2.26369284e+00, 6.52141827e-02, 1.21914533e-01, 3.20528024e+00, 0.00000000e+00, 2.6670671990, 6.8511105219, 1.9409554169, 8.2660433588, 8.0000000000, 10.0000000000, 0.0015814463
          10, -2.48876876e-02, 8.42963113e-02, 0.00000000e+00, 0.00000000e+00, 0.00000000e+00, -4.25556557e-02, 8.42963113e-02, -2.48876876e-02, 0.00000000e+00, -2.95240530e-01, 0.00000000e+00, 0.00000000e+00, -6.50659617e+03, 5.86101491e+03, 0.00000000e+00, -3.11520026e+00, -4.68941130e-01, -7.29551632e-01, 2.36671814e+00, 0.00000000e+00, 0.4606002182, 6.9308734998, 0.0472650947, 6.0676104604, 10.0000000000, 25.1666987261, 0.0168649793
          20, -3.44182081e-01, 5.03775150e-02, 0.00000000e+00, 0.00000000e+00, 0.00000000e+00, -2.49835508e-01, 5.03775150e-02, -3.44182081e-01, 0.00000000e+00, -6.83205753e+00, 0.00000000e+00, 0.00000000e+00, -2.57462748e+03, 2.32101839e+03, 0.00000000e+00, -3.45525767e+00, -7.82715540e-01, -7.53998980e-01, 2.02703700e+00, 0.00000000e+00, -0.2768376188, 5.8711274773, 0.1676944086, 5.4092237754, 10.0000000000, 38.4056562254, 0.0326119979
          30, -1.63206282e-01, 3.71952578e-02, 0.00000000e+00, 0.00000000e+00, 0.00000000e+00, -7.91135324e-02, 3.71952578e-02, -1.63206282e-01, 0.00000000e+00, -4.38782499e+00, 0.00000000e+00, 0.00000000e+00, -1.41974405e+03, 1.29258104e+03, 0.00000000e+00, -3.53388551e+00, -8.66776928e-01, -1.19179393e+00, 1.95245578e+00, 0.00000000e+00, -0.7441630222, 5.1845774175, -0.5859946619, 4.8262123663, 10.0000000000, 39.8129619895, 0.0480242848
          40, -1.33574051e-01, 2.99649229e-02, 0.00000000e+00, 0.00000000e+00, 0.00000000e+00, -1.41091181e-01, 2.99649229e-02, -1.33574051e-01, 0.00000000e+00, -4.45768044e+00, 0.00000000e+00, 0.00000000e+00, -9.26325733e+02, 8.31336177e+02, 0.00000000e+00, -3.66966675e+00, -1.05907904e+00, -1.06454864e+00, 1.78945929e+00, 0.00000000e+00, -1.0259955418, 4.7233223655, -0.5937178301, 4.7191361168, 10.0000000000, 46.4771564767, 0.0636987289
          50, -2.20076319e-01, 2.48834764e-02, 0.00000000e+00, 0.00000000e+00, 0.00000000e+00, -1.46498293e-01, 2.48834764e-02, -2.20076319e-01, 0.00000000e+00, -8.84427541e+00, 0.00000000e+00, 0.00000000e+00, -6.45382574e+02, 5.84186054e+02, 0.00000000e+00, -3.89063951e+00, -1.23461565e+00, -1.26784023e+00, 1.58635205e+00, 0.00000000e+00, -1.2143087866, 4.3361941918, -1.5250677100, 4.0812711098, 10.0000000000, 60.0425544729, 0.0793614268
          60, -1.69561120e-01, 2.10727121e-02, 0.00000000e+00, 0.00000000e+00, 0.00000000e+00, -1.33910878e-01, 2.10727121e-02, -1.69561120e-01, 0.00000000e+00, -8.04647828e+00, 0.00000000e+00, 0.00000000e+00, -4.57631926e+02, 4.36401789e+02, 0.00000000e+00, -4.08394652e+00, -1.32851305e+00, -1.57027817e+00, 1.37875499e+00, 0.00000000e+00, -1.4059299817, 3.9920836144, -0.9369196123, 4.6279894604, 10.0000000000, 69.5817573487, 0.0948603630
          70, -1.93331023e-01, 1.83710059e-02, 0.00000000e+00, 0.00000000e+00, 0.00000000e+00, -1.42714247e-01, 1.83710059e-02, -1.93331023e-01, 0.00000000e+00, -1.05237037e+01, 0.00000000e+00, 0.00000000e+00, -3.47409063e+02, 3.16352972e+02, 0.00000000e+00, -4.23297399e+00, -1.42528880e+00, -1.69612222e+00, 1.24620814e+00, 0.00000000e+00, -1.5880600570, 3.6994998494, -1.7934347577, 4.2105641308, 10.0000000000, 66.7123811979, 0.1106050730
          80, -1.83439963e-01, 1.63674823e-02, 0.00000000e+00, 0.00000000e+00, 0.00000000e+00, -1.38078656e-01, 1.63674823e-02, -1.83439963e-01, 0.00000000e+00, -1.12075859e+01, 0.00000000e+00, 0.00000000e+00, -2.74369159e+02, 2.81847880e+02, 0.00000000e+00, -4.38230728e+00, -1.50237912e+00, -1.90168345e+00, 1.09775432e+00, 0.00000000e+00, -1.7156720677, 3.4556364500, -2.0324279137, 3.4684613215, 10.0000000000, 67.3086934994, 0.1261494040
          90, -1.87061868e-01, 1.47104357e-02, 0.00000000e+00, 0.00000000e+00, 0.00000000e+00, -1.40317516e-01, 1.47104357e-02, -1.87061868e-01, 0.00000000e+00, -1.27162697e+01, 0.00000000e+00, 0.00000000e+00, -2.21604541e+02, 2.26890502e+02, 0.00000000e+00, -4.56265324e+00, -1.56985263e+00, -2.11647704e+00, 9.18954679e-01, 0.00000000e+00, -1.8301849455, 3.2322026625, -2.1046157109, 3.0799880752, 10.0000000000, 79.5162852412, 0.1416750550
         100, -1.87415658e-01, 1.31463385e-02, 0.00000000e+00, 0.00000000e+00, 0.00000000e+00, -1.40405217e-01, 1.31463385e-02, -1.87415658e-01, 0.00000000e+00, -1.42561109e+01, 0.00000000e+00, 0.00000000e+00, -1.76454135e+02, 2.02124284e+02, 0.00000000e+00, -4.79949923e+00, -1.63697306e+00, -2.33029107e+00, 6.83418108e-01, 0.00000000e+00, -1.9517260920, 2.9982070705, -2.2313498866, 2.8469767367, 10.0000000000, 103.7454065101, 0.1571131070
         110, -1.87270651e-01, 1.15659676e-02, 0.00000000e+00, 0.00000000e+00, 0.00000000e+00, -1.40385876e-01, 1.15659676e-02, -1.87270651e-01, 0.00000000e+00, -1.61915248e+01, 0.00000000e+00, 0.00000000e+00, -1.35817514e+02, 1.86251923e+02, 0.00000000e+00, -5.04591181e+00, -1.71193507e+00, -2.54701307e+00, 4.18894978e-01, 0.00000000e+00, -2.0783944988, 2.7331671921, -2.3085227639, 2.8859842244, 10.0000000000, 145.8275959758, 0.1727067987
         120, -1.87171170e-01, 1.00431964e-02, 0.00000000e+00, 0.00000000e+00, 0.00000000e+00, -1.40400099e-01, 1.00431964e-02, -1.87171170e-01, 0.00000000e+00, -1.86366135e+01, 0.00000000e+00, 0.00000000e+00, -1.01398641e+02, 1.74896012e+02, 0.00000000e+00, -5.30238135e+00, -1.78699099e+00, -2.82512588e+00, 1.48502002e-01, 0.00000000e+00, -2.2000763686, 2.4412210681, -2.3852207336, 2.6539119932, 10.0000000000, 189.0081571789, 0.1881238103
         130, -1.87268237e-01, 8.68312461e-03, 0.00000000e+00, 0.00000000e+00, 0.00000000e+00, -1.40487104e-01, 8.68312461e-03, -1.87268237e-01, 0.00000000e+00, -2.15669181e+01, 0.00000000e+00, 0.00000000e+00, -7.48897723e+01, 1.69745450e+02, 0.00000000e+00, -5.41550116e+00, -1.86351040e+00, -2.97233195e+00, 3.93607270e-02, 0.00000000e+00, -2.3250482692, 2.1482243046, -2.4657923705, 2.6151425399, 10.0000000000, 217.7564333838, 0.2037569404
         140, -1.87290193e-01, 7.57198239e-03, 0.00000000e+00, 0.00000000e+00, 0.00000000e+00, -1.40521830e-01, 7.57198239e-03, -1.87290193e-01, 0.00000000e+00, -2.47346313e+01, 0.00000000e+00, 0.00000000e+00, -5.64028720e+01, 1.65611398e+02, 0.00000000e+00, -5.51835698e+00, -1.93443669e+00, -3.10890578e+00, -6.07630363e-02, 0.00000000e+00, -2.4157326256, 1.8941557594, -2.5526654163, 2.2939492361, 10.0000000000, 244.9060602565, 0.2191307624
         150, -1.87360771e-01, 6.65409568e-03, 0.00000000e+00, 0.00000000e+00, 0.00000000e+00, -1.40582608e-01, 6.65409568e-03, -1.87360771e-01, 0.00000000e+00, -2.81572103e+01, 0.00000000e+00, 0.00000000e+00, -4.32032306e+01, 1.61264257e+02, 0.00000000e+00, -5.60529252e+00, -2.00053269e+00, -3.23980525e+00, -1.44903104e-01, 0.00000000e+00, -2.5112521993, 1.6838910927, -2.6532804183, 2.7192386787, 10.0000000000, 270.4908555742, 0.2347351273
         160, -1.87371971e-01, 5.88844393e-03, 0.00000000e+00, 0.00000000e+00, 0.00000000e+00, -1.40605465e-01, 5.88844393e-03, -1.87371971e-01, 0.00000000e+00, -3.18202861e+01, 0.00000000e+00, 0.00000000e+00, -3.36039690e+01, 1.63664783e+02, 0.00000000e+00, -5.68214079e+00, -2.06232624e+00, -3.36458335e+00, -2.19381455e-01, 0.00000000e+00, -2.6018975532, 3.1063676331, -2.7655982577, 2.2807553461, 10.0000000000, 295.5541082795, 0.2501379927
         170, -1.87397702e-01, 5.26178103e-03, 0.00000000e+00, 0.00000000e+00, 0.00000000e+00, -1.40633247e-01, 5.26178103e-03, -1.87397702e-01, 0.00000000e+00, -3.56148803e+01, 0.00000000e+00, 0.00000000e+00, -2.66182094e+01, 1.45746293e+02, 0.00000000e+00, -5.75606986e+00, -2.11896087e+00, -3.48385204e+00, -2.91968439e-01, 0.00000000e+00, -2.7072515415, 1.6435898576, -2.8873639035, 2.6372491544, 10.0000000000, 299.7000000000, 0.2657660405
         180, -1.87404352e-01, 4.76273788e-03, 0.00000000e+00, 0.00000000e+00, 0.00000000e+00, -1.40649059e-01, 4.76273788e-03, -1.87404352e-01, 0.00000000e+00, -3.93480298e+01, 0.00000000e+00, 0.00000000e+00, -2.16895229e+01, 1.42943343e+02, 0.00000000e+00, -5.82320639e+00, -2.16868748e+00, -3.60420801e+00, -3.58270045e-01, 0.00000000e+00, -2.8032665632, 2.5008579582, -3.0088010792, 2.0158764118, 10.0000000000, 299.7000000000, 0.2813509186
         190, -1.87407892e-01, 4.35495671e-03, 0.00000000e+00, 0.00000000e+00, 0.00000000e+00, -1.40659796e-01, 4.35495671e-03, -1.87407892e-01, 0.00000000e+00, -4.30332387e+01, 0.00000000e+00, 0.00000000e+00, -1.80636042e+01, 1.41838026e+02, 0.00000000e+00, -5.88189853e+00, -2.21300651e+00, -3.72617394e+00, -4.16376860e-01, 0.00000000e+00, -2.8966963473, 2.3212604663, -3.0820542674, 2.1034968518, 10.0000000000, 299.7000000000, 0.2967407227
         200, -1.87412019e-01, 4.01480786e-03, 0.00000000e+00, 0.00000000e+00, 0.00000000e+00, -1.40670854e-01, 4.01480786e-03, -1.87412019e-01, 0.00000000e+00, -4.66801963e+01, 0.00000000e+00, 0.00000000e+00, -1.53037717e+01, 1.38453333e+02, 0.00000000e+00, -5.93344885e+00, -2.25299983e+00, -3.84480222e+00, -4.67216131e-01, 0.00000000e+00, -2.9857249622, 2.1873326132, -3.2494383927, 1.8691795362, 10.0000000000, 299.7000000000, 0.3123875419
         210, -1.87407599e-01, 3.72639868e-03, 0.00000000e+00, 0.00000000e+00, 0.00000000e+00, -1.40675115e-01, 3.72639868e-03, -1.87407599e-01, 0.00000000e+00, -5.02918810e+01, 0.00000000e+00, 0.00000000e+00, -1.31522113e+01, 1.35047767e+02, 0.00000000e+00, -5.97985415e+00, -2.28946373e+00, -3.97597292e+00, -5.13068951e-01, 0.00000000e+00, -3.0702532923, 1.6209532096, -3.3667465572, 1.8654919207, 10.0000000000, 299.7000000000, 0.3277721882
         220, -1.87408599e-01, 3.47849209e-03, 0.00000000e+00, 0.00000000e+00, 0.00000000e+00, -1.40682310e-01, 3.47849209e-03, -1.87408599e-01, 0.00000000e+00, -5.38763907e+01, 0.00000000e+00, 0.00000000e+00, -1.14415793e+01, 1.32456904e+02, 0.00000000e+00, -6.02024414e+00, -2.32298397e+00, -4.08897646e+00, -5.52637636e-01, 0.00000000e+00, -3.1497707802, 1.4186902083, -3.4772913062, 1.6528618722, 10.0000000000, 299.7000000000, 0.3434278965
         230, -1.87402724e-01, 3.26296323e-03, 0.00000000e+00, 0.00000000e+00, 0.00000000e+00, -1.40684648e-01, 3.26296323e-03, -1.87402724e-01, 0.00000000e+00, -5.74332933e+01, 0.00000000e+00, 0.00000000e+00, -1.00582115e+01, 1.30452751e+02, 0.00000000e+00, -6.05742637e+00, -2.35401203e+00, -4.21329487e+00, -5.89080277e-01, 0.00000000e+00, -3.2217538213, 1.7066664147, -3.5808208919, 1.7786051906, 10.0000000000, 299.7000000000, 0.3587898215
         240, -1.87400540e-01, 3.07375253e-03, 0.00000000e+00, 0.00000000e+00, 0.00000000e+00, -1.40688577e-01, 3.07375253e-03, -1.87400540e-01, 0.00000000e+00, -6.09679987e+01, 0.00000000e+00, 0.00000000e+00, -8.92285644e+00, 1.28772661e+02, 0.00000000e+00, -6.09060807e+00, -2.38290333e+00, -4.31528315e+00, -6.21370914e-01, 0.00000000e+00, -3.2806085314, 1.6295115728, -3.0783221161, 1.7219755227, 10.0000000000, 299.7000000000, 0.3743687232
         250, -1.87395355e-01, 2.90624162e-03, 0.00000000e+00, 0.00000000e+00, 0.00000000e+00, -1.40690370e-01, 2.90624162e-03, -1.87395355e-01, 0.00000000e+00, -6.44803079e+01, 0.00000000e+00, 0.00000000e+00, -7.98012756e+00, 1.27211548e+02, 0.00000000e+00, -6.12159347e+00, -2.40993776e+00, -4.41010205e+00, -6.51442721e-01, 0.00000000e+00, -3.3324937398, 1.1950880528, -3.7639155326, 1.8826260656, 10.0000000000, 299.7000000000, 0.3897144874
         260, -1.87391070e-01, 2.75685006e-03, 0.00000000e+00, 0.00000000e+00, 0.00000000e+00, -1.40692068e-01, 2.75685006e-03, -1.87391070e-01, 0.00000000e+00, -6.79728914e+01, 0.00000000e+00, 0.00000000e+00, -7.18692187e+00, 1.25631120e+02, 0.00000000e+00, -6.15036329e+00, -2.43534778e+00, -4.51156218e+00, -6.79261790e-01, 0.00000000e+00, -3.3477309727, 2.2697294106, -3.8468402138, 1.7331528829, 10.0000000000, 299.7000000000, 0.4053699374
         270, -1.87386501e-01, 2.62275434e-03, 0.00000000e+00, 0.00000000e+00, 0.00000000e+00, -1.40693379e-01, 2.62275434e-03, -1.87386501e-01, 0.00000000e+00, -7.14464554e+01, 0.00000000e+00, 0.00000000e+00, -6.51359574e+00, 1.23991283e+02, 0.00000000e+00, -6.17722591e+00, -2.45931894e+00, -4.57058231e+00, -7.05038539e-01, 0.00000000e+00, -3.3503405427, 1.3392765165, -3.9164397325, 1.8299325073, 10.0000000000, 299.7000000000, 0.4209572792
         280, -1.87381324e-01, 2.50176295e-03, 0.00000000e+00, 0.00000000e+00, 0.00000000e+00, -1.40693878e-01, 2.50176295e-03, -1.87381324e-01, 0.00000000e+00, -7.48997117e+01, 0.00000000e+00, 0.00000000e+00, -5.93755068e+00, 1.22394730e+02, 0.00000000e+00, -6.20280213e+00, -2.48200473e+00, -4.66261607e+00, -7.29509563e-01, 0.00000000e+00, -3.3115526849, 1.0263244061, -3.8653003429, 1.8448500304, 10.0000000000, 299.7000000000, 0.4365581512
         290, -1.87376746e-01, 2.39204913e-03, 0.00000000e+00, 0.00000000e+00, 0.00000000e+00, -1.40694596e-01, 2.39204913e-03, -1.87376746e-01, 0.00000000e+00, -7.83331511e+01, 0.00000000e+00, 0.00000000e+00, -5.44570651e+00, 1.20904710e+02, 0.00000000e+00, -6.22670268e+00, -2.50352320e+00, -4.68236842e+00, -7.52115586e-01, 0.00000000e+00, -3.2288229222, 1.6935785352, -3.9514089082, 1.9166429739, 10.0000000000, 299.7000000000, 0.4519648035
         300, -1.87371199e-01, 2.29215586e-03, 0.00000000e+00, 0.00000000e+00, 0.00000000e+00, -1.40694626e-01, 2.29215586e-03, -1.87371199e-01, 0.00000000e+00, -8.17445284e+01, 0.00000000e+00, 0.00000000e+00, -5.01567991e+00, 1.19539001e+02, 0.00000000e+00, -6.24963184e+00, -2.52395206e+00, -4.71315741e+00, -7.73648507e-01, 0.00000000e+00, -3.1072967424, 1.1539341556, -3.8758349591, 1.9792638827, 10.0000000000, 299.7000000000, 0.4676803946
         310, -1.87365931e-01, 2.20095529e-03, 0.00000000e+00, 0.00000000e+00, 0.00000000e+00, -1.40694904e-01, 2.20095529e-03, -1.87365931e-01, 0.00000000e+00, -8.51293671e+01, 0.00000000e+00, 0.00000000e+00, -4.64818579e+00, 1.18282961e+02, 0.00000000e+00, -6.27113583e+00, -2.54331605e+00, -4.68550754e+00, -7.93572800e-01, 0.00000000e+00, -2.9811377885, 1.2636743506, -3.2337406885, 2.0531930414, 10.0000000000, 299.7000000000, 0.4831258376
         320, -1.87359715e-01, 2.11748853e-03, 0.00000000e+00, 0.00000000e+00, 0.00000000e+00, -1.40694921e-01, 2.11748853e-03, -1.87359715e-01, 0.00000000e+00, -8.84820447e+01, 0.00000000e+00, 0.00000000e+00, -4.32635107e+00, 1.17113677e+02, 0.00000000e+00, -6.29154833e+00, -2.56159306e+00, -4.63211195e+00, -8.12231727e-01, 0.00000000e+00, -2.8693836124, 1.4221109787, -3.5973307039, 2.1047746207, 10.0000000000, 299.7000000000, 0.4987363060
         330, -1.87353021e-01, 2.04115701e-03, 0.00000000e+00, 0.00000000e+00, 0.00000000e+00, -1.40695146e-01, 2.04115701e-03, -1.87353021e-01, 0.00000000e+00, -9.17876579e+01, 0.00000000e+00, 0.00000000e+00, -4.06287528e+00, 1.16012358e+02, 0.00000000e+00, -6.31064360e+00, -2.57875980e+00, -4.55822582e+00, -8.29439630e-01, 0.00000000e+00, -2.7637214185, 2.4824761576, -3.4856491696, 2.1406604811, 10.0000000000, 299.7000000000, 0.5141337395
         340, -1.87345482e-01, 1.97140927e-03, 0.00000000e+00, 0.00000000e+00, 0.00000000e+00, -1.40695506e-01, 1.97140927e-03, -1.87345482e-01, 0.00000000e+00, -9.50312473e+01, 0.00000000e+00, 0.00000000e+00, -3.82095065e+00, 1.14967443e+02, 0.00000000e+00, -6.32874999e+00, -2.59490206e+00, -4.47555544e+00, -8.45519979e-01, 0.00000000e+00, -2.6564529394, 1.4748701784, -3.1584404706, 2.1727334698, 10.0000000000, 299.7000000000, 0.5295191328
         350, -1.87337287e-01, 1.90792899e-03, 0.00000000e+00, 0.00000000e+00, 0.00000000e+00, -1.40696061e-01, 1.90792899e-03, -1.87337287e-01, 0.00000000e+00, -9.81888152e+01, 0.00000000e+00, 0.00000000e+00, -3.62830413e+00, 1.13973006e+02, 0.00000000e+00, -6.34623282e+00, -2.61031579e+00, -4.41218919e+00, -8.60852702e-01, 0.00000000e+00, -2.5825870070, 2.6313428483, -3.3780669355, 2.1906005154, 10.0000000000, 299.7000000000, 0.5452388962
         360, -1.87328703e-01, 1.85038459e-03, 0.00000000e+00, 0.00000000e+00, 0.00000000e+00, -1.40696831e-01, 1.85038459e-03, -1.87328703e-01, 0.00000000e+00, -1.01237712e+02, 0.00000000e+00, 0.00000000e+00, -3.48737828e+00, 1.13025499e+02, 0.00000000e+00, -6.36279451e+00, -2.62521839e+00, -4.38898478e+00, -8.75232107e-01, 0.00000000e+00, -2.4828767491, 2.1239489236, -3.3439521602, 2.1058883204, 10.0000000000, 299.7000000000, 0.5605289340
         370, -1.87319935e-01, 1.79791078e-03, 0.00000000e+00, 0.00000000e+00, 0.00000000e+00, -1.40697641e-01, 1.79791078e-03, -1.87319935e-01, 0.00000000e+00, -1.04187559e+02, 0.00000000e+00, 0.00000000e+00, -3.33799665e+00, 1.12122604e+02, 0.00000000e+00, -6.37971434e+00, -2.63978160e+00, -4.36657948e+00, -8.89551388e-01, 0.00000000e+00, -2.4410451321, 1.9362740551, -3.3146630557, 2.1889783521, 10.0000000000, 299.7000000000, 0.5764279207
         380, -1.87311224e-01, 1.75007804e-03, 0.00000000e+00, 0.00000000e+00, 0.00000000e+00, -1.40698525e-01, 1.75007804e-03, -1.87311224e-01, 0.00000000e+00, -1.07030213e+02, 0.00000000e+00, 0.00000000e+00, -3.26766752e+00, 1.11261049e+02, 0.00000000e+00, -6.39651240e+00, -2.65386598e+00, -4.38335256e+00, -9.03631522e-01, 0.00000000e+00, -2.3891727985, 2.7055369999, -3.2420731920, 2.4014655007, 10.0000000000, 299.7000000000, 0.5916577339
         390, -1.87302567e-01, 1.70600473e-03, 0.00000000e+00, 0.00000000e+00, 0.00000000e+00, -1.40699369e-01, 1.70600473e-03, -1.87302567e-01, 0.00000000e+00, -1.09790180e+02, 0.00000000e+00, 0.00000000e+00, -3.19999558e+00, 1.10436652e+02, 0.00000000e+00, -6.41117078e+00, -2.66740187e+00, -4.32455033e+00, -9.15765007e-01, 0.00000000e+00, -2.3649976350, 2.8066010651, -3.1960269336, 2.2663307933, 10.0000000000, 299.7000000000, 0.6070698698
         400, -1.87294363e-01, 1.66447490e-03, 0.00000000e+00, 0.00000000e+00, 0.00000000e+00, -1.40700145e-01, 1.66447490e-03, -1.87294363e-01, 0.00000000e+00, -1.12524594e+02, 0.00000000e+00, 0.00000000e+00, -3.07497286e+00, 1.09647067e+02, 0.00000000e+00, -6.42730843e+00, -2.68044575e+00, -4.33063385e+00, -9.28784387e-01, 0.00000000e+00, -2.3690209022, 2.5249572171, -3.1569510986, 2.2907675323, 10.0000000000, 299.7000000000, 0.6227362514
         410, -1.87286495e-01, 1.62560621e-03, 0.00000000e+00, 0.00000000e+00, 0.00000000e+00, -1.40700781e-01, 1.62560621e-03, -1.87286495e-01, 0.00000000e+00, -1.15210248e+02, 0.00000000e+00, 0.00000000e+00, -3.01917229e+00, 1.08890132e+02, 0.00000000e+00, -6.44200799e+00, -2.69283908e+00, -4.32847122e+00, -9.40567392e-01, 0.00000000e+00, -2.3264133688, 3.4909648112, -3.1274999396, 2.3954108887, 10.0000000000, 299.7000000000, 0.6381417354
         420, -1.87278851e-01, 1.58909293e-03, 0.00000000e+00, 0.00000000e+00, 0.00000000e+00, -1.40701316e-01, 1.58909293e-03, -1.87278851e-01, 0.00000000e+00, -1.17852674e+02, 0.00000000e+00, 0.00000000e+00, -3.05005169e+00, 1.08167686e+02, 0.00000000e+00, -6.45398142e+00, -2.70480175e+00, -4.34706630e+00, -9.50206557e-01, 0.00000000e+00, -2.3585326114, 2.8185070688, -3.1129493812, 2.3269121528, 10.0000000000, 299.8982704274, 0.6536776384
         430, -1.87271749e-01, 1.55393638e-03, 0.00000000e+00, 0.00000000e+00, 0.00000000e+00, -1.40701649e-01, 1.55393638e-03, -1.87271749e-01, 0.00000000e+00, -1.20514425e+02, 0.00000000e+00, 0.00000000e+00, -2.92904817e+00, 1.07476361e+02, 0.00000000e+00, -6.46906581e+00, -2.71630266e+00, -4.32328746e+00, -9.62281617e-01, 0.00000000e+00, -2.3287630440, 2.6905186222, -3.0753148778, 2.3032342245, 10.0000000000, 299.1306956875, 0.6691734076
         440, -1.87265098e-01, 1.52068870e-03, 0.00000000e+00, 0.00000000e+00, 0.00000000e+00, -1.40701744e-01, 1.52068870e-03, -1.87265098e-01, 0.00000000e+00, -1.23144927e+02, 0.00000000e+00, 0.00000000e+00, -2.83906323e+00, 1.06821115e+02, 0.00000000e+00, -6.48179411e+00, -2.72723012e+00, -4.33013878e+00, -9.72322189e-01, 0.00000000e+00, -2.3104614452, 3.4210622388, -3.0476504589, 2.6620606827, 10.0000000000, 299.7000000000, 0.6843838255
         450, -1.87258405e-01, 1.48943839e-03, 0.00000000e+00, 0.00000000e+00, 0.00000000e+00, -1.40701742e-01, 1.48943839e-03, -1.87258405e-01, 0.00000000e+00, -1.25724169e+02, 0.00000000e+00, 0.00000000e+00, -2.95359349e+00, 1.06235655e+02, 0.00000000e+00, -6.49189135e+00, -2.73773010e+00, -4.30789383e+00, -9.80533617e-01, 0.00000000e+00, -2.3442785405, 3.6774887349, -3.0330028543, 2.6354827023, 10.0000000000, 299.7000000000, 0.6998300910
         460, -1.87252218e-01, 1.45953079e-03, 0.00000000e+00, 0.00000000e+00, 0.00000000e+00, -1.40701545e-01, 1.45953079e-03, -1.87252218e-01, 0.00000000e+00, -1.28296175e+02, 0.00000000e+00, 0.00000000e+00, -2.81552318e+00, 1.05675781e+02, 0.00000000e+00, -6.50417683e+00, -2.74785516e+00, -4.27893549e+00, -9.90531753e-01, 0.00000000e+00, -2.3085953372, 2.5538246045, -3.0106691584, 2.3173260939, 10.0000000000, 297.3711387994, 0.7150732001
         470, -1.87246181e-01, 1.43108119e-03, 0.00000000e+00, 0.00000000e+00, 0.00000000e+00, -1.40701121e-01, 1.43108119e-03, -1.87246181e-01, 0.00000000e+00, -1.30842458e+02, 0.00000000e+00, 0.00000000e+00, -2.71754743e+00, 1.05189933e+02, 0.00000000e+00, -6.51656779e+00, -2.75740298e+00, -4.28008871e+00, -1.00041963e+00, 0.00000000e+00, -2.3003307864, 2.8527321241, -2.9941954620, 2.5280400059, 10.0000000000, 298.9276094867, 0.7303058863
         480, -1.87240179e-01, 1.40433812e-03, 0.00000000e+00, 0.00000000e+00, 0.00000000e+00, -1.40700521e-01, 1.40433812e-03, -1.87240179e-01, 0.00000000e+00, -1.33329841e+02, 0.00000000e+00, 0.00000000e+00, -2.74604021e+00, 1.04748965e+02, 0.00000000e+00, -6.52401268e+00, -2.76661182e+00, -4.26629331e+00, -1.00685127e+00, 0.00000000e+00, -2.2906046605, 3.1977876826, -2.9755296249, 2.6028274818, 10.0000000000, 299.7534533012, 0.7458428105
         490, -1.87234062e-01, 1.37911627e-03, 0.00000000e+00, 0.00000000e+00, 0.00000000e+00, -1.40699787e-01, 1.37911627e-03, -1.87234062e-01, 0.00000000e+00, -1.35763797e+02, 0.00000000e+00, 0.00000000e+00, -2.73828641e+00, 1.04350525e+02, 0.00000000e+00, -6.53272359e+00, -2.77549391e+00, -4.27736879e+00, -1.01448497e+00, 0.00000000e+00, -2.2800110664, 2.9963768192, -2.9540372443, 2.2965008690, 10.0000000000, 298.5401659620, 0.7610745748
         500, -1.87228119e-01, 1.35485299e-03, 0.00000000e+00, 0.00000000e+00, 0.00000000e+00, -1.40698820e-01, 1.35485299e-03, -1.87228119e-01, 0.00000000e+00, -1.38190727e+02, 0.00000000e+00, 0.00000000e+00, -2.65100185e+00, 1.03992819e+02, 0.00000000e+00, -6.54281898e+00, -2.78390074e+00, -4.27292865e+00, -1.02310910e+00, 0.00000000e+00, -2.2666105385, 2.6842866251, -2.9317357355, 2.3741659852, 10.0000000000, 298.5944460774, 0.7765526334
         510, -1.87222124e-01, 1.33226177e-03, 0.00000000e+00, 0.00000000e+00, 0.00000000e+00, -1.40697677e-01, 1.33226177e-03, -1.87222124e-01, 0.00000000e+00, -1.40529532e+02, 0.00000000e+00, 0.00000000e+00, -2.70061652e+00, 1.03673175e+02, 0.00000000e+00, -6.55119924e+00, -2.79194703e+00, -4.28070716e+00, -1.03049738e+00, 0.00000000e+00, -2.2464794377, 2.8655270040, -2.9119471047, 2.6394047752, 10.0000000000, 297.8602533367, 0.7918831348
         520, -1.87215996e-01, 1.31090480e-03, 0.00000000e+00, 0.00000000e+00, 0.00000000e+00, -1.40696373e-01, 1.31090480e-03, -1.87215996e-01, 0.00000000e+00, -1.42814334e+02, 0.00000000e+00, 0.00000000e+00, -2.68487074e+00, 1.03387424e+02, 0.00000000e+00, -6.55868478e+00, -2.79950007e+00, -4.31537725e+00, -1.03747172e+00, 0.00000000e+00, -2.2514951027, 2.9934408936, -2.8922523863, 2.2504552544, 10.0000000000, 296.9406625890, 0.8073906422
         530, -1.87209965e-01, 1.29054177e-03, 0.00000000e+00, 0.00000000e+00, 0.00000000e+00, -1.40694840e-01, 1.29054177e-03, -1.87209965e-01, 0.00000000e+00, -1.45063081e+02, 0.00000000e+00, 0.00000000e+00, -2.61219357e+00, 1.03134379e+02, 0.00000000e+00, -6.56677713e+00, -2.80655650e+00, -4.35848947e+00, -1.04513429e+00, 0.00000000e+00, -2.2363555233, 2.7648867561, -2.8746816391, 2.4326067593, 10.0000000000, 294.6868396265, 0.8226672292
         540, -1.87203882e-01, 1.27182720e-03, 0.00000000e+00, 0.00000000e+00, 0.00000000e+00, -1.40693151e-01, 1.27182720e-03, -1.87203882e-01, 0.00000000e+00, -1.47192859e+02, 0.00000000e+00, 0.00000000e+00, -2.69359241e+00, 1.02912044e+02, 0.00000000e+00, -6.57217235e+00, -2.81308895e+00, -4.37182464e+00, -1.05058580e+00, 0.00000000e+00, -2.2263937751, 3.1553093244, -2.8622975432, 2.6506376542, 10.0000000000, 291.2119789670, 0.8381396214
         550, -1.87197703e-01, 1.25434315e-03, 0.00000000e+00, 0.00000000e+00, 0.00000000e+00, -1.40691337e-01, 1.25434315e-03, -1.87197703e-01, 0.00000000e+00, -1.49239626e+02, 0.00000000e+00, 0.00000000e+00, -2.67401215e+00, 1.02714007e+02, 0.00000000e+00, -6.57780638e+00, -2.81904707e+00, -4.36541670e+00, -1.05673022e+00, 0.00000000e+00, -2.2342185573, 2.9251205086, -2.8492689549, 2.2979167166, 10.0000000000, 284.0787932726, 0.8540858150
         560, -1.87191698e-01, 1.23799222e-03, 0.00000000e+00, 0.00000000e+00, 0.00000000e+00, -1.40689358e-01, 1.23799222e-03, -1.87191698e-01, 0.00000000e+00, -1.51205875e+02, 0.00000000e+00, 0.00000000e+00, -2.61711881e+00, 1.02541280e+02, 0.00000000e+00, -6.58356765e+00, -2.82432718e+00, -4.37427438e+00, -1.06305994e+00, 0.00000000e+00, -2.2291254279, 2.8009377219, -2.8351611689, 2.4661056514, 10.0000000000, 275.4700592932, 0.8695532163
         570, -1.87185523e-01, 1.22341595e-03, 0.00000000e+00, 0.00000000e+00, 0.00000000e+00, -1.40687245e-01, 1.22341595e-03, -1.87185523e-01, 0.00000000e+00, -1.53002356e+02, 0.00000000e+00, 0.00000000e+00, -2.75162952e+00, 1.02396486e+02, 0.00000000e+00, -6.59130302e+00, -2.82892213e+00, -4.36935613e+00, -1.07100882e+00, 0.00000000e+00, -2.2216608356, 3.4650959609, -2.8238122769, 2.8325074319, 10.0000000000, 264.7076685444, 0.8848056793
         580, -1.87179518e-01, 1.20987231e-03, 0.00000000e+00, 0.00000000e+00, 0.00000000e+00, -1.40684970e-01, 1.20987231e-03, -1.87179518e-01, 0.00000000e+00, -1.54710143e+02, 0.00000000e+00, 0.00000000e+00, -2.68657367e+00, 1.02258288e+02, 0.00000000e+00, -6.59651028e+00, -2.83272604e+00, -4.36336824e+00, -1.07692106e+00, 0.00000000e+00, -2.2275258062, 2.5924060533, -2.8121203162, 2.2964284948, 10.0000000000, 255.5474458587, 0.9009372354
         590, -1.87173565e-01, 1.19736761e-03, 0.00000000e+00, 0.00000000e+00, 0.00000000e+00, -1.40682489e-01, 1.19736761e-03, -1.87173565e-01, 0.00000000e+00, -1.56320885e+02, 0.00000000e+00, 0.00000000e+00, -2.65189951e+00, 1.02141746e+02, 0.00000000e+00, -6.59679789e+00, -2.83587475e+00, -4.27989140e+00, -1.07898412e+00, 0.00000000e+00, -2.2426208702, 3.1087772970, -2.8016456994, 2.5713183868, 10.0000000000, 248.0951484837, 0.9162110607
         600, -1.87167282e-01, 1.18615567e-03, 0.00000000e+00, 0.00000000e+00, 0.00000000e+00, -1.40679789e-01, 1.18615567e-03, -1.87167282e-01, 0.00000000e+00, -1.57793185e+02, 0.00000000e+00, 0.00000000e+00, -2.79197238e+00, 1.02041747e+02, 0.00000000e+00, -6.59742437e+00, -2.83869819e+00, -4.22664889e+00, -1.08137374e+00, 0.00000000e+00, -2.2381853128, 3.6281360208, -2.7914400000, 2.3681371867, 10.0000000000, 242.0246746248, 0.9317006270
         610, -1.87161029e-01, 1.17539198e-03, 0.00000000e+00, 0.00000000e+00, 0.00000000e+00, -1.40676828e-01, 1.17539198e-03, -1.87161029e-01, 0.00000000e+00, -1.59232863e+02, 0.00000000e+00, 0.00000000e+00, -2.71962778e+00, 1.01944444e+02, 0.00000000e+00, -6.60012493e+00, -2.84072536e+00, -4.21959292e+00, -1.08491622e+00, 0.00000000e+00, -2.2259609047, 2.2507044381, -2.7720986875, 2.3223298140, 10.0000000000, 234.7944702019, 0.9469611128
         620, -1.87154635e-01, 1.16554494e-03, 0.00000000e+00, 0.00000000e+00, 0.00000000e+00, -1.40673554e-01, 1.16554494e-03, -1.87154635e-01, 0.00000000e+00, -1.60572645e+02, 0.00000000e+00, 0.00000000e+00, -2.72017573e+00, 1.01859850e+02, 0.00000000e+00, -6.60095851e+00, -2.84253021e+00, -4.22274250e+00, -1.08688446e+00, 0.00000000e+00, -2.2310434285, 3.3482222353, -2.7780733062, 2.4892846607, 10.0000000000, 230.5306441561, 0.9622235735
         630, -1.87147920e-01, 1.15668505e-03, 0.00000000e+00, 0.00000000e+00, 0.00000000e+00, -1.40670072e-01, 1.15668505e-03, -1.87147920e-01, 0.00000000e+00, -1.61796784e+02, 0.00000000e+00, 0.00000000e+00, -2.84388058e+00, 1.01784460e+02, 0.00000000e+00, -6.59842688e+00, -2.84402375e+00, -4.20615230e+00, -1.08671622e+00, 0.00000000e+00, -2.2270317548, 3.0212958370, -2.7704280487, 2.3486342991, 10.0000000000, 224.6389077454, 0.9776046554
         640, -1.87141372e-01, 1.14819849e-03, 0.00000000e+00, 0.00000000e+00, 0.00000000e+00, -1.40666348e-01, 1.14819849e-03, -1.87141372e-01, 0.00000000e+00, -1.62986952e+02, 0.00000000e+00, 0.00000000e+00, -2.76943724e+00, 1.01713820e+02, 0.00000000e+00, -6.59685024e+00, -2.84484571e+00, -4.20153928e+00, -1.08767540e+00, 0.00000000e+00, -2.2108369482, 2.4143607584, -2.7555112995, 2.3037039266, 10.0000000000, 217.5482876116, 0.9928114613
         650, -1.87134840e-01, 1.14077932e-03, 0.00000000e+00, 0.00000000e+00, 0.00000000e+00, -1.40662594e-01, 1.14077932e-03, -1.87134840e-01, 0.00000000e+00, -1.64041228e+02, 0.00000000e+00, 0.00000000e+00, -2.81383067e+00, 1.01650917e+02, 0.00000000e+00, -6.59789267e+00, -2.84511808e+00, -4.14732127e+00, -1.09090438e+00, 0.00000000e+00, -2.2090581909, 3.2801657446, -2.7483280790, 2.3938305839, 10.0000000000, 202.3315218370, 1.0082445105