TITLE = "SU2 Simulation"
VARIABLES = "Iteration","CL","CD","CSF","CMx","CMy","CMz","CFx","CFy","CFz","CL/CD","AoA","Custom_ObjFunc","HeatFlux_Total","HeatFlux_Maximum","Temperature_Total","Res_Flow[0]","Res_Flow[1]","Res_Flow[2]","Res_Flow[3]","Res_Flow[4]"," Res_Turb[0]"," Res_Turb[1]"," Res_Turb[2]"," Res_Turb[3]","Linear_Solver_Iterations","CFL_Number","Time(min)"
ZONE T= "Convergence history"
           0, -4.00000039e-01, 2.01249574e-01, 0.00000000e+00, 0.00000000e+00, 0.00000000e+00, -3.00000136e-01, 2.01249574e-01, -4.00000039e-01, 0.00000000e+00, -1.98758204e+00, 0.00000000e+00, 0.00000000e+00, -8.74672963e+04, 7.87986306e+04, 0.00000000e+00, -2.26369284e+00, 6.52141827e-02, 1.21914533e-01, 3.20528024e+00, 0.00000000e+00, 2.6670671990, 6.8533113732, 1.9409554169, 8.2660433588, 8.0000000000, 10.0000000000, 0.0037643863
          10, -2.55822675e-02, 8.38896337e-02, 0.00000000e+00, 0.00000000e+00, 0.00000000e+00, -4.32659546e-02, 8.38896337e-02, -2.55822675e-02, 0.00000000e+00, -3.04951475e-01, 0.00000000e+00, 0.00000000e+00, -6.37045404e+03, 5.73827139e+03, 0.00000000e+00, -3.11612446e+00, -4.72166447e-01, -7.29972719e-01, 2.36579705e+00, 0.00000000e+00, 0.4961859086, 6.9761604668, 0.0467483378, 6.0685031612, 10.0000000000, 25.1914284365, 0.0417052317
          20, -3.44246562e-01, 5.03585865e-02, 0.00000000e+00, 0.00000000e+00, 0.00000000e+00, -2.50297784e-01, 5.03585865e-02, -3.44246562e-01, 0.00000000e+00, -6.83590596e+00, 0.00000000e+00, 0.00000000e+00, -2.56263395e+03, 2.30991532e+03, 0.00000000e+00, -3.45058035e+00, -7.84393974e-01, -7.55011911e-01, 2.03178732e+00, 0.00000000e+00, -0.2506162630, 5.9027061977, 0.1642172987, 5.4403115710, 10.0000000000, 38.0521490756, 0.0806828975
          30, -1.63311263e-01, 3.71617573e-02, 0.00000000e+00, 0.00000000e+00, 0.00000000e+00, -7.91078398e-02, 3.71617573e-02, -1.63311263e-01, 0.00000000e+00, -4.39460549e+00, 0.00000000e+00, 0.00000000e+00, -1.41390625e+03, 1.28729715e+03, 0.00000000e+00, -3.53239033e+00, -8.64206464e-01, -1.19072156e+00, 1.95395258e+00, 0.00000000e+00, -0.7254203554, 5.2090762991, -0.4896174190, 4.8765223201, 10.0000000000, 39.9605858638, 0.1196861395
          40, -1.34477293e-01, 2.99198974e-02, 0.00000000e+00, 0.00000000e+00, 0.00000000e+00, -1.41594828e-01, 2.99198974e-02, -1.34477293e-01, 0.00000000e+00, -4.49457733e+00, 0.00000000e+00, 0.00000000e+00, -9.21891427e+02, 8.27256267e+02, 0.00000000e+00, -3.66865163e+00, -1.06075618e+00, -1.06948049e+00, 1.79044538e+00, 0.00000000e+00, -1.0125313093, 4.7421471030, -0.5937976792, 4.7106605426, 10.0000000000, 46.6921728609, 0.1588027749
          50, -2.19159303e-01, 2.48220224e-02, 0.00000000e+00, 0.00000000e+00, 0.00000000e+00, -1.45761671e-01, 2.48220224e-02, -2.19159303e-01, 0.00000000e+00, -8.82922830e+00, 0.00000000e+00, 0.00000000e+00, -6.41058090e+02, 5.80538892e+02, 0.00000000e+00, -3.89406802e+00, -1.23618490e+00, -1.27415917e+00, 1.58311746e+00, 0.00000000e+00, -1.2218988019, 4.3497175751, -1.5268855819, 4.0723592258, 10.0000000000, 60.6907483886, 0.1978539478
          60, -1.69955717e-01, 2.10111817e-02, 0.00000000e+00, 0.00000000e+00, 0.00000000e+00, -1.34389871e-01, 2.10111817e-02, -1.69955717e-01, 0.00000000e+00, -8.08882237e+00, 0.00000000e+00, 0.00000000e+00, -4.54289892e+02, 4.32563691e+02, 0.00000000e+00, -4.09330138e+00, -1.33072774e+00, -1.57545174e+00, 1.36936703e+00, 0.00000000e+00, -1.4480183807, 4.0017464840, -0.4681170905, 4.6624713731, 10.0000000000, 70.5374319237, 0.2369657378
          70, -1.93163169e-01, 1.83197443e-02, 0.00000000e+00, 0.00000000e+00, 0.00000000e+00, -1.42521543e-01, 1.83197443e-02, -1.93163169e-01, 0.00000000e+00, -1.05439883e+01, 0.00000000e+00, 0.00000000e+00, -3.44978204e+02, 3.14327986e+02, 0.00000000e+00, -4.24281935e+00, -1.42688663e+00, -1.70045105e+00, 1.23640021e+00, 0.00000000e+00, -1.5847716555, 3.7070160898, -1.6639034021, 4.1602846805, 10.0000000000, 67.3306902639, 0.2759120466
          80, -1.83551109e-01, 1.63225925e-02, 0.00000000e+00, 0.00000000e+00, 0.00000000e+00, -1.38177459e-01, 1.63225925e-02, -1.83551109e-01, 0.00000000e+00, -1.12452179e+01, 0.00000000e+00, 0.00000000e+00, -2.72531297e+02, 2.79399281e+02, 0.00000000e+00, -4.38911648e+00, -1.50374614e+00, -1.90518749e+00, 1.09092579e+00, 0.00000000e+00, -1.7133763617, 3.4615551630, -2.0346220712, 3.4254103632, 10.0000000000, 68.1315806330, 0.3148709033
          90, -1.86970862e-01, 1.46572276e-02, 0.00000000e+00, 0.00000000e+00, 0.00000000e+00, -1.40248494e-01, 1.46572276e-02, -1.86970862e-01, 0.00000000e+00, -1.27562229e+01, 0.00000000e+00, 0.00000000e+00, -2.19741962e+02, 2.26633132e+02, 0.00000000e+00, -4.57111275e+00, -1.57154681e+00, -2.11955895e+00, 9.10960237e-01, 0.00000000e+00, -1.8299488028, 3.2350408135, -2.1082123869, 3.1001002780, 10.0000000000, 81.2596716547, 0.3538348921
         100, -1.87357644e-01, 1.30766849e-02, 0.00000000e+00, 0.00000000e+00, 0.00000000e+00, -1.40378762e-01, 1.30766849e-02, -1.87357644e-01, 0.00000000e+00, -1.43276103e+01, 0.00000000e+00, 0.00000000e+00, -1.74373375e+02, 2.00811782e+02, 0.00000000e+00, -4.81603613e+00, -1.64000487e+00, -2.33983792e+00, 6.66702264e-01, 0.00000000e+00, -1.9530134982, 2.9963505773, -2.2334021818, 2.8509658083, 10.0000000000, 106.9406952611, 0.3931473933
         110, -1.87285612e-01, 1.14781356e-02, 0.00000000e+00, 0.00000000e+00, 0.00000000e+00, -1.40380102e-01, 1.14781356e-02, -1.87285612e-01, 0.00000000e+00, -1.63167276e+01, 0.00000000e+00, 0.00000000e+00, -1.33536792e+02, 1.85484466e+02, 0.00000000e+00, -5.04964147e+00, -1.71592708e+00, -2.55147924e+00, 4.16278539e-01, 0.00000000e+00, -2.0822940631, 2.7246955572, -2.3124213490, 2.8906664426, 10.0000000000, 147.9248611750, 0.4320909979
         120, -1.87189230e-01, 9.93865060e-03, 0.00000000e+00, 0.00000000e+00, 0.00000000e+00, -1.40404873e-01, 9.93865060e-03, -1.87189230e-01, 0.00000000e+00, -1.88344714e+01, 0.00000000e+00, 0.00000000e+00, -9.91044189e+01, 1.74786449e+02, 0.00000000e+00, -5.30838718e+00, -1.79238241e+00, -2.83508935e+00, 1.42653603e-01, 0.00000000e+00, -2.2232288901, 2.4261834527, -2.3908397667, 3.1941323859, 10.0000000000, 194.4845168200, 0.4710588958
         130, -1.87272438e-01, 8.58201255e-03, 0.00000000e+00, 0.00000000e+00, 0.00000000e+00, -1.40490707e-01, 8.58201255e-03, -1.87272438e-01, 0.00000000e+00, -2.18215060e+01, 0.00000000e+00, 0.00000000e+00, -7.29948508e+01, 1.69413857e+02, 0.00000000e+00, -5.42066097e+00, -1.86953670e+00, -2.97728080e+00, 3.50909679e-02, 0.00000000e+00, -2.3315010420, 2.1300435480, -2.4727767065, 2.8852206462, 10.0000000000, 222.3435658716, 0.5099634248
         140, -1.87294936e-01, 7.47620058e-03, 0.00000000e+00, 0.00000000e+00, 0.00000000e+00, -1.40526533e-01, 7.47620058e-03, -1.87294936e-01, 0.00000000e+00, -2.50521550e+01, 0.00000000e+00, 0.00000000e+00, -5.48664848e+01, 1.65112424e+02, 0.00000000e+00, -5.52336613e+00, -1.94091301e+00, -3.11337507e+00, -6.48716428e-02, 0.00000000e+00, -2.4247666198, 1.8752736172, -2.5617649563, 2.4555518705, 10.0000000000, 250.3226733068, 0.5489757330
         150, -1.87364377e-01, 6.56469469e-03, 0.00000000e+00, 0.00000000e+00, 0.00000000e+00, -1.40586774e-01, 6.56469469e-03, -1.87364377e-01, 0.00000000e+00, -2.85412172e+01, 0.00000000e+00, 0.00000000e+00, -4.19602897e+01, 1.60747155e+02, 0.00000000e+00, -5.61078246e+00, -2.00733883e+00, -3.24466094e+00, -1.49615743e-01, 0.00000000e+00, -2.5255677848, 1.6634795737, -2.3915431374, 2.7490120977, 10.0000000000, 276.6389557723, 0.5884475683
         160, -1.87373287e-01, 5.80609823e-03, 0.00000000e+00, 0.00000000e+00, 0.00000000e+00, -1.40608355e-01, 5.80609823e-03, -1.87373287e-01, 0.00000000e+00, -3.22718079e+01, 0.00000000e+00, 0.00000000e+00, -3.25908049e+01, 1.60263691e+02, 0.00000000e+00, -5.68789984e+00, -2.06939922e+00, -3.37058951e+00, -2.24532223e-01, 0.00000000e+00, -2.6179289750, 1.5104307218, -2.7799206801, 2.7315044576, 10.0000000000, 299.7000000000, 0.6275606615
         170, -1.87398877e-01, 5.19687871e-03, 0.00000000e+00, 0.00000000e+00, 0.00000000e+00, -1.40636136e-01, 5.19687871e-03, -1.87398877e-01, 0.00000000e+00, -3.60598905e+01, 0.00000000e+00, 0.00000000e+00, -2.59120866e+01, 1.47488747e+02, 0.00000000e+00, -5.76362805e+00, -2.12519767e+00, -3.49109310e+00, -2.99220428e-01, 0.00000000e+00, -2.7144168332, 2.1812494734, -2.9014250501, 2.5204367414, 10.0000000000, 299.7000000000, 0.6665214049
         180, -1.87403557e-01, 4.71024979e-03, 0.00000000e+00, 0.00000000e+00, 0.00000000e+00, -1.40650683e-01, 4.71024979e-03, -1.87403557e-01, 0.00000000e+00, -3.97863310e+01, 0.00000000e+00, 0.00000000e+00, -2.11842670e+01, 1.48060876e+02, 0.00000000e+00, -5.82981531e+00, -2.17420471e+00, -3.61132989e+00, -3.64649128e-01, 0.00000000e+00, -2.8150261476, 2.4241568528, -3.0227362006, 2.3960412542, 10.0000000000, 299.7000000000, 0.7054083103
         190, -1.87407387e-01, 4.31148226e-03, 0.00000000e+00, 0.00000000e+00, 0.00000000e+00, -1.40661504e-01, 4.31148226e-03, -1.87407387e-01, 0.00000000e+00, -4.34670434e+01, 0.00000000e+00, 0.00000000e+00, -1.76766432e+01, 1.42628428e+02, 0.00000000e+00, -5.88760131e+00, -2.21795867e+00, -3.73194962e+00, -4.21871073e-01, 0.00000000e+00, -2.9078696224, 1.4390575659, -2.9849184505, 2.0305035272, 10.0000000000, 299.7000000000, 0.7445973778
         200, -1.87410706e-01, 3.97817535e-03, 0.00000000e+00, 0.00000000e+00, 0.00000000e+00, -1.40671954e-01, 3.97817535e-03, -1.87410706e-01, 0.00000000e+00, -4.71097147e+01, 0.00000000e+00, 0.00000000e+00, -1.50058190e+01, 1.40250633e+02, 0.00000000e+00, -5.93858236e+00, -2.25749436e+00, -3.84979542e+00, -4.72156280e-01, 0.00000000e+00, -2.9969017370, 2.1374808487, -3.2629959022, 1.7022158928, 10.0000000000, 299.7000000000, 0.7835663104
         210, -1.87406509e-01, 3.69505645e-03, 0.00000000e+00, 0.00000000e+00, 0.00000000e+00, -1.40676134e-01, 3.69505645e-03, -1.87406509e-01, 0.00000000e+00, -5.07181721e+01, 0.00000000e+00, 0.00000000e+00, -1.29188091e+01, 1.38271247e+02, 0.00000000e+00, -5.98451032e+00, -2.29358130e+00, -3.98031100e+00, -5.17537698e-01, 0.00000000e+00, -3.0814712397, 2.1493345346, -3.3794922081, 1.7285879484, 10.0000000000, 299.7000000000, 0.8224908855
         220, -1.87407440e-01, 3.45131086e-03, 0.00000000e+00, 0.00000000e+00, 0.00000000e+00, -1.40683063e-01, 3.45131086e-03, -1.87407440e-01, 0.00000000e+00, -5.43003651e+01, 0.00000000e+00, 0.00000000e+00, -1.12542312e+01, 1.36236442e+02, 0.00000000e+00, -6.02457550e+00, -2.32678461e+00, -4.09329410e+00, -5.56783804e-01, 0.00000000e+00, -3.1632347900, 1.3395336062, -3.4893709607, 1.6904938355, 10.0000000000, 299.7000000000, 0.8615433032
         230, -1.87401727e-01, 3.23911126e-03, 0.00000000e+00, 0.00000000e+00, 0.00000000e+00, -1.40685192e-01, 3.23911126e-03, -1.87401727e-01, 0.00000000e+00, -5.78559094e+01, 0.00000000e+00, 0.00000000e+00, -9.90342376e+00, 1.33828412e+02, 0.00000000e+00, -6.06148674e+00, -2.35754232e+00, -4.21930959e+00, -5.92965976e-01, 0.00000000e+00, -3.2403839922, 1.8463207345, -3.5923860340, 1.4480599107, 10.0000000000, 299.7000000000, 0.9004806356
         240, -1.87399831e-01, 3.05259854e-03, 0.00000000e+00, 0.00000000e+00, 0.00000000e+00, -1.40688999e-01, 3.05259854e-03, -1.87399831e-01, 0.00000000e+00, -6.13902642e+01, 0.00000000e+00, 0.00000000e+00, -8.79159055e+00, 1.31252918e+02, 0.00000000e+00, -6.09439328e+00, -2.38619940e+00, -4.32099115e+00, -6.24979058e-01, 0.00000000e+00, -3.3115872427, 1.6901781528, -3.6187073055, 1.6134186327, 10.0000000000, 299.7000000000, 0.9394922645
         250, -1.87394801e-01, 2.88729801e-03, 0.00000000e+00, 0.00000000e+00, 0.00000000e+00, -1.40690562e-01, 2.88729801e-03, -1.87394801e-01, 0.00000000e+00, -6.49031728e+01, 0.00000000e+00, 0.00000000e+00, -7.86577571e+00, 1.28830211e+02, 0.00000000e+00, -6.12516581e+00, -2.41302914e+00, -4.41797317e+00, -6.54844798e-01, 0.00000000e+00, -3.3814354399, 1.1942290568, -3.7767926057, 1.5680654280, 10.0000000000, 299.7000000000, 0.9783938168
         260, -1.87390886e-01, 2.73974778e-03, 0.00000000e+00, 0.00000000e+00, 0.00000000e+00, -1.40692165e-01, 2.73974778e-03, -1.87390886e-01, 0.00000000e+00, -6.83971304e+01, 0.00000000e+00, 0.00000000e+00, -7.08831318e+00, 1.26673382e+02, 0.00000000e+00, -6.15371216e+00, -2.43825833e+00, -4.51929878e+00, -6.82435962e-01, 0.00000000e+00, -3.4371438743, 1.0181417039, -3.8603233509, 1.5872163892, 10.0000000000, 299.7000000000, 1.0173238495
         270, -1.87386550e-01, 2.60716353e-03, 0.00000000e+00, 0.00000000e+00, 0.00000000e+00, -1.40693267e-01, 2.60716353e-03, -1.87386550e-01, 0.00000000e+00, -7.18737233e+01, 0.00000000e+00, 0.00000000e+00, -6.42418656e+00, 1.24750637e+02, 0.00000000e+00, -6.18043147e+00, -2.46207092e+00, -4.58015995e+00, -7.08067635e-01, 0.00000000e+00, -3.4900228054, 1.3617111575, -3.9373993082, 1.6770606577, 10.0000000000, 299.7000000000, 1.0562498960
         280, -1.87381783e-01, 2.48738264e-03, 0.00000000e+00, 0.00000000e+00, 0.00000000e+00, -1.40693620e-01, 2.48738264e-03, -1.87381783e-01, 0.00000000e+00, -7.53329143e+01, 0.00000000e+00, 0.00000000e+00, -5.85815905e+00, 1.23000232e+02, 0.00000000e+00, -6.20591299e+00, -2.48462281e+00, -4.68015302e+00, -7.32435848e-01, 0.00000000e+00, -3.5269246789, 1.1789092255, -3.9203127701, 1.5941814993, 10.0000000000, 299.7000000000, 1.0953417870
         290, -1.87377658e-01, 2.37861613e-03, 0.00000000e+00, 0.00000000e+00, 0.00000000e+00, -1.40694103e-01, 2.37861613e-03, -1.87377658e-01, 0.00000000e+00, -7.87759134e+01, 0.00000000e+00, 0.00000000e+00, -5.36856430e+00, 1.21370803e+02, 0.00000000e+00, -6.22981740e+00, -2.50604390e+00, -4.71310184e+00, -7.55041436e-01, 0.00000000e+00, -3.5469102904, 0.8629212739, -4.0603343175, 1.6239940149, 10.0000000000, 299.7000000000, 1.1342887650
         300, -1.87372827e-01, 2.27940273e-03, 0.00000000e+00, 0.00000000e+00, 0.00000000e+00, -1.40693829e-01, 2.27940273e-03, -1.87372827e-01, 0.00000000e+00, -8.22025983e+01, 0.00000000e+00, 0.00000000e+00, -4.94459045e+00, 1.19831552e+02, 0.00000000e+00, -6.25292699e+00, -2.52644586e+00, -4.78097542e+00, -7.76744841e-01, 0.00000000e+00, -3.5480642073, 1.2301384793, -4.1205131984, 1.6976816351, 10.0000000000, 299.7000000000, 1.1731969837
         310, -1.87368613e-01, 2.18852892e-03, 0.00000000e+00, 0.00000000e+00, 0.00000000e+00, -1.40693681e-01, 2.18852892e-03, -1.87368613e-01, 0.00000000e+00, -8.56139533e+01, 0.00000000e+00, 0.00000000e+00, -4.57227042e+00, 1.18377021e+02, 0.00000000e+00, -6.27487201e+00, -2.54592179e+00, -4.80462669e+00, -7.97092371e-01, 0.00000000e+00, -3.5123451791, 0.7191026355, -3.6918534145, 1.7154435278, 10.0000000000, 299.7000000000, 1.2121283161
         320, -1.87363982e-01, 2.10499382e-03, 0.00000000e+00, 0.00000000e+00, 0.00000000e+00, -1.40693075e-01, 2.10499382e-03, -1.87363982e-01, 0.00000000e+00, -8.90092786e+01, 0.00000000e+00, 0.00000000e+00, -4.24654072e+00, 1.17012492e+02, 0.00000000e+00, -6.29615157e+00, -2.56454996e+00, -4.82435830e+00, -8.16569309e-01, 0.00000000e+00, -3.4417508849, 0.7243272819, -4.1770048691, 1.7297307354, 10.0000000000, 299.7000000000, 1.2511883748
         330, -1.87359610e-01, 2.02794970e-03, 0.00000000e+00, 0.00000000e+00, 0.00000000e+00, -1.40692437e-01, 2.02794970e-03, -1.87359610e-01, 0.00000000e+00, -9.23886871e+01, 0.00000000e+00, 0.00000000e+00, -3.95958280e+00, 1.15740185e+02, 0.00000000e+00, -6.31665810e+00, -2.58239038e+00, -4.83836127e+00, -8.35057046e-01, 0.00000000e+00, -3.3517259305, 1.3676067169, -4.1434625861, 1.8523006130, 10.0000000000, 299.7000000000, 1.2901908958
         340, -1.87355091e-01, 1.95668464e-03, 0.00000000e+00, 0.00000000e+00, 0.00000000e+00, -1.40691625e-01, 1.95668464e-03, -1.87355091e-01, 0.00000000e+00, -9.57512966e+01, 0.00000000e+00, 0.00000000e+00, -3.70554542e+00, 1.14552794e+02, 0.00000000e+00, -6.33645025e+00, -2.59947776e+00, -4.81108012e+00, -8.52574701e-01, 0.00000000e+00, -3.2350206872, 0.9414472948, -3.7068758401, 1.9324621901, 10.0000000000, 299.7000000000, 1.3292949560
         350, -1.87350486e-01, 1.89060686e-03, 0.00000000e+00, 0.00000000e+00, 0.00000000e+00, -1.40690711e-01, 1.89060686e-03, -1.87350486e-01, 0.00000000e+00, -9.90954227e+01, 0.00000000e+00, 0.00000000e+00, -3.48139901e+00, 1.13438135e+02, 0.00000000e+00, -6.35556428e+00, -2.61580997e+00, -4.77439272e+00, -8.69196110e-01, 0.00000000e+00, -3.1178554485, 1.3334745167, -3.8854231660, 1.9904041844, 10.0000000000, 299.7000000000, 1.3682875539
         360, -1.87345743e-01, 1.82923029e-03, 0.00000000e+00, 0.00000000e+00, 0.00000000e+00, -1.40689787e-01, 1.82923029e-03, -1.87345743e-01, 0.00000000e+00, -1.02417800e+02, 0.00000000e+00, 0.00000000e+00, -3.28212196e+00, 1.12384492e+02, 0.00000000e+00, -6.37384942e+00, -2.63134768e+00, -4.70624670e+00, -8.84772463e-01, 0.00000000e+00, -3.0006121945, 1.1328667360, -3.7534362190, 2.0446421632, 10.0000000000, 299.7000000000, 1.4071651062
         370, -1.87340667e-01, 1.77217566e-03, 0.00000000e+00, 0.00000000e+00, 0.00000000e+00, -1.40688803e-01, 1.77217566e-03, -1.87340667e-01, 0.00000000e+00, -1.05712245e+02, 0.00000000e+00, 0.00000000e+00, -3.10712420e+00, 1.11383213e+02, 0.00000000e+00, -6.39123452e+00, -2.64611891e+00, -4.61986123e+00, -8.99354465e-01, 0.00000000e+00, -2.8876993702, 1.2212143237, -3.6218122128, 2.1101431812, 10.0000000000, 299.7000000000, 1.4459578480
         380, -1.87335391e-01, 1.71915585e-03, 0.00000000e+00, 0.00000000e+00, 0.00000000e+00, -1.40687897e-01, 1.71915585e-03, -1.87335391e-01, 0.00000000e+00, -1.08969406e+02, 0.00000000e+00, 0.00000000e+00, -2.95409311e+00, 1.10429326e+02, 0.00000000e+00, -6.40807247e+00, -2.66016111e+00, -4.55503859e+00, -9.13221289e-01, 0.00000000e+00, -2.7862100843, 1.2222617408, -3.5796465150, 2.1552853736, 10.0000000000, 299.7000000000, 1.4847658106
         390, -1.87329860e-01, 1.66995343e-03, 0.00000000e+00, 0.00000000e+00, 0.00000000e+00, -1.40686992e-01, 1.66995343e-03, -1.87329860e-01, 0.00000000e+00, -1.12176697e+02, 0.00000000e+00, 0.00000000e+00, -2.82078833e+00, 1.09520536e+02, 0.00000000e+00, -6.42401287e+00, -2.67371136e+00, -4.51807186e+00, -9.26276477e-01, 0.00000000e+00, -2.6920924556, 1.2164034583, -3.4848254630, 2.1295365037, 10.0000000000, 299.7000000000, 1.5236597513
         400, -1.87324213e-01, 1.62437430e-03, 0.00000000e+00, 0.00000000e+00, 0.00000000e+00, -1.40686159e-01, 1.62437430e-03, -1.87324213e-01, 0.00000000e+00, -1.15320843e+02, 0.00000000e+00, 0.00000000e+00, -2.70652907e+00, 1.08656087e+02, 0.00000000e+00, -6.44015991e+00, -2.68686512e+00, -4.49530712e+00, -9.39189436e-01, 0.00000000e+00, -2.6302378739, 1.6328513293, -3.4769469633, 2.1044202373, 10.0000000000, 299.7000000000, 1.5626070527
         410, -1.87318486e-01, 1.58220344e-03, 0.00000000e+00, 0.00000000e+00, 0.00000000e+00, -1.40685328e-01, 1.58220344e-03, -1.87318486e-01, 0.00000000e+00, -1.18390898e+02, 0.00000000e+00, 0.00000000e+00, -2.61272702e+00, 1.07836043e+02, 0.00000000e+00, -6.45596979e+00, -2.69968306e+00, -4.47252145e+00, -9.51868374e-01, 0.00000000e+00, -2.5605192117, 2.0894625987, -3.3720243539, 2.1575426590, 10.0000000000, 299.7000000000, 1.6013758617
         420, -1.87312770e-01, 1.54314506e-03, 0.00000000e+00, 0.00000000e+00, 0.00000000e+00, -1.40684506e-01, 1.54314506e-03, -1.87312770e-01, 0.00000000e+00, -1.21383773e+02, 0.00000000e+00, 0.00000000e+00, -2.52842072e+00, 1.07062730e+02, 0.00000000e+00, -6.47006802e+00, -2.71198230e+00, -4.49688981e+00, -9.63070467e-01, 0.00000000e+00, -2.5160593237, 1.2142606098, -3.3820526631, 2.1218127081, 10.0000000000, 299.7000000000, 1.6401298900
         430, -1.87307114e-01, 1.50682022e-03, 0.00000000e+00, 0.00000000e+00, 0.00000000e+00, -1.40683667e-01, 1.50682022e-03, -1.87307114e-01, 0.00000000e+00, -1.24306212e+02, 0.00000000e+00, 0.00000000e+00, -2.45330339e+00, 1.06363859e+02, 0.00000000e+00, -6.48622048e+00, -2.72408121e+00, -4.44696323e+00, -9.75862634e-01, 0.00000000e+00, -2.4896733562, 1.9102050601, -3.3184316278, 2.1235372043, 10.0000000000, 299.7000000000, 1.6789250696
         440, -1.87301505e-01, 1.47294124e-03, 0.00000000e+00, 0.00000000e+00, 0.00000000e+00, -1.40682813e-01, 1.47294124e-03, -1.87301505e-01, 0.00000000e+00, -1.27161560e+02, 0.00000000e+00, 0.00000000e+00, -2.42630131e+00, 1.05742432e+02, 0.00000000e+00, -6.50104814e+00, -2.73593397e+00, -4.46205932e+00, -9.87703464e-01, 0.00000000e+00, -2.4625686615, 2.8609077972, -3.2744027360, 2.3701574714, 10.0000000000, 299.7000000000, 1.7176837619
         450, -1.87296019e-01, 1.44106825e-03, 0.00000000e+00, 0.00000000e+00, 0.00000000e+00, -1.40681931e-01, 1.44106825e-03, -1.87296019e-01, 0.00000000e+00, -1.29970263e+02, 0.00000000e+00, 0.00000000e+00, -2.34971952e+00, 1.05178743e+02, 0.00000000e+00, -6.51488761e+00, -2.74732187e+00, -4.46990390e+00, -9.98849129e-01, 0.00000000e+00, -2.4404418266, 1.4465220635, -3.2434638949, 2.1324927901, 10.0000000000, 299.7000000000, 1.7566573145
         460, -1.87290671e-01, 1.41095211e-03, 0.00000000e+00, 0.00000000e+00, 0.00000000e+00, -1.40681008e-01, 1.41095211e-03, -1.87290671e-01, 0.00000000e+00, -1.32740630e+02, 0.00000000e+00, 0.00000000e+00, -2.29234630e+00, 1.04668847e+02, 0.00000000e+00, -6.52712949e+00, -2.75828609e+00, -4.46742332e+00, -1.00886449e+00, 0.00000000e+00, -2.4099415557, 3.1220883125, -3.2324830096, 2.3336676766, 10.0000000000, 299.7000000000, 1.7956475801
         470, -1.87285412e-01, 1.38261345e-03, 0.00000000e+00, 0.00000000e+00, 0.00000000e+00, -1.40680070e-01, 1.38261345e-03, -1.87285412e-01, 0.00000000e+00, -1.35457537e+02, 0.00000000e+00, 0.00000000e+00, -2.29294211e+00, 1.04209861e+02, 0.00000000e+00, -6.53850861e+00, -2.76882505e+00, -4.39254677e+00, -1.01811027e+00, 0.00000000e+00, -2.4397801184, 2.2901711576, -3.2245761756, 2.2340418475, 10.0000000000, 299.7000000000, 1.8344807639
         480, -1.87280297e-01, 1.35530188e-03, 0.00000000e+00, 0.00000000e+00, 0.00000000e+00, -1.40679091e-01, 1.35530188e-03, -1.87280297e-01, 0.00000000e+00, -1.38183456e+02, 0.00000000e+00, 0.00000000e+00, -2.22080627e+00, 1.03798677e+02, 0.00000000e+00, -6.55062034e+00, -2.77901863e+00, -4.37139910e+00, -1.02814378e+00, 0.00000000e+00, -2.4232281070, 2.6813882001, -3.2136341709, 2.4095044667, 10.0000000000, 299.1860941986, 1.8733486352
         490, -1.87275348e-01, 1.32973512e-03, 0.00000000e+00, 0.00000000e+00, 0.00000000e+00, -1.40678055e-01, 1.32973512e-03, -1.87275348e-01, 0.00000000e+00, -1.40836580e+02, 0.00000000e+00, 0.00000000e+00, -2.22749898e+00, 1.03431156e+02, 0.00000000e+00, -6.56290644e+00, -2.78903377e+00, -4.37995779e+00, -1.03826382e+00, 0.00000000e+00, -2.4232416802, 2.6736823394, -3.1650924176, 2.1832209887, 10.0000000000, 299.7000000000, 1.9121251119
         500, -1.87270537e-01, 1.30482947e-03, 0.00000000e+00, 0.00000000e+00, 0.00000000e+00, -1.40676982e-01, 1.30482947e-03, -1.87270537e-01, 0.00000000e+00, -1.43521082e+02, 0.00000000e+00, 0.00000000e+00, -2.16246571e+00, 1.03103246e+02, 0.00000000e+00, -6.57473423e+00, -2.79902889e+00, -4.36706290e+00, -1.04814234e+00, 0.00000000e+00, -2.4522988550, 2.5823901515, -3.1089007557, 2.3860585505, 10.0000000000, 299.9639614919, 1.9509188664
         510, -1.87265818e-01, 1.28158729e-03, 0.00000000e+00, 0.00000000e+00, 0.00000000e+00, -1.40675856e-01, 1.28158729e-03, -1.87265818e-01, 0.00000000e+00, -1.46120221e+02, 0.00000000e+00, 0.00000000e+00, -2.17753017e+00, 1.02811666e+02, 0.00000000e+00, -6.58553945e+00, -2.80851130e+00, -4.48910789e+00, -1.05759030e+00, 0.00000000e+00, -2.3959832721, 2.7067695000, -3.0817088207, 2.1550746462, 10.0000000000, 299.7000000000, 1.9898046537
         520, -1.87261316e-01, 1.25905889e-03, 0.00000000e+00, 0.00000000e+00, 0.00000000e+00, -1.40674698e-01, 1.25905889e-03, -1.87261316e-01, 0.00000000e+00, -1.48731181e+02, 0.00000000e+00, 0.00000000e+00, -2.12068123e+00, 1.02552867e+02, 0.00000000e+00, -6.59510421e+00, -2.81742451e+00, -4.47785868e+00, -1.06617151e+00, 0.00000000e+00, -2.3846998365, 2.9375135285, -3.0837311638, 2.5021810394, 10.0000000000, 298.2141202988, 2.0287334291
         530, -1.87256893e-01, 1.23795663e-03, 0.00000000e+00, 0.00000000e+00, 0.00000000e+00, -1.40673483e-01, 1.23795663e-03, -1.87256893e-01, 0.00000000e+00, -1.51262886e+02, 0.00000000e+00, 0.00000000e+00, -2.11912856e+00, 1.02323025e+02, 0.00000000e+00, -6.60341561e+00, -2.82608740e+00, -4.51044223e+00, -1.07396186e+00, 0.00000000e+00, -2.3784521869, 2.6828030620, -3.0668007331, 2.1474449280, 10.0000000000, 296.4922769054, 2.0675452141
         540, -1.87252598e-01, 1.21787552e-03, 0.00000000e+00, 0.00000000e+00, 0.00000000e+00, -1.40672232e-01, 1.21787552e-03, -1.87252598e-01, 0.00000000e+00, -1.53753479e+02, 0.00000000e+00, 0.00000000e+00, -2.11651673e+00, 1.02119303e+02, 0.00000000e+00, -6.61340690e+00, -2.83424375e+00, -4.44405552e+00, -1.08331305e+00, 0.00000000e+00, -2.3546760486, 3.3841556329, -3.0648284005, 2.2760106775, 10.0000000000, 293.1189946637, 2.1063680350
         550, -1.87248327e-01, 1.19890378e-03, 0.00000000e+00, 0.00000000e+00, 0.00000000e+00, -1.40670979e-01, 1.19890378e-03, -1.87248327e-01, 0.00000000e+00, -1.56182948e+02, 0.00000000e+00, 0.00000000e+00, -2.11210629e+00, 1.01939219e+02, 0.00000000e+00, -6.62258825e+00, -2.84213207e+00, -4.43813425e+00, -1.09181504e+00, 0.00000000e+00, -2.3782764434, 2.7378240793, -3.0637110410, 2.2581945265, 10.0000000000, 290.4122853506, 2.1451397223
         560, -1.87244184e-01, 1.18108922e-03, 0.00000000e+00, 0.00000000e+00, 0.00000000e+00, -1.40669699e-01, 1.18108922e-03, -1.87244184e-01, 0.00000000e+00, -1.58535174e+02, 0.00000000e+00, 0.00000000e+00, -2.15607769e+00, 1.01779805e+02, 0.00000000e+00, -6.63214008e+00, -2.84948816e+00, -4.38463782e+00, -1.10104141e+00, 0.00000000e+00, -2.3536619105, 2.9713409259, -3.0583826430, 2.5511013675, 10.0000000000, 286.4826470213, 2.1839144174
         570, -1.87240074e-01, 1.16407588e-03, 0.00000000e+00, 0.00000000e+00, 0.00000000e+00, -1.40668428e-01, 1.16407588e-03, -1.87240074e-01, 0.00000000e+00, -1.60848684e+02, 0.00000000e+00, 0.00000000e+00, -2.09928132e+00, 1.01637381e+02, 0.00000000e+00, -6.63926443e+00, -2.85657533e+00, -4.34249154e+00, -1.10834807e+00, 0.00000000e+00, -2.3689805523, 2.8068491815, -3.0540982014, 2.2442458369, 10.0000000000, 282.0582155917, 2.2229198049
         580, -1.87235947e-01, 1.14843034e-03, 0.00000000e+00, 0.00000000e+00, 0.00000000e+00, -1.40667133e-01, 1.14843034e-03, -1.87235947e-01, 0.00000000e+00, -1.63036398e+02, 0.00000000e+00, 0.00000000e+00, -2.18162521e+00, 1.01513252e+02, 0.00000000e+00, -6.64293496e+00, -2.86308747e+00, -4.34936106e+00, -1.11320857e+00, 0.00000000e+00, -2.3632842299, 3.5848459278, -3.0493662100, 2.1908748280, 10.0000000000, 278.9164630942, 2.2621685081
         590, -1.87231969e-01, 1.13313423e-03, 0.00000000e+00, 0.00000000e+00, 0.00000000e+00, -1.40665770e-01, 1.13313423e-03, -1.87231969e-01, 0.00000000e+00, -1.65233706e+02, 0.00000000e+00, 0.00000000e+00, -2.07746787e+00, 1.01397533e+02, 0.00000000e+00, -6.64836751e+00, -2.86944479e+00, -4.28470391e+00, -1.11915426e+00, 0.00000000e+00, -2.3642112149, 2.0195850791, -3.0195349162, 2.2784388893, 10.0000000000, 276.4203331535, 2.3011100614
         600, -1.87227793e-01, 1.11927506e-03, 0.00000000e+00, 0.00000000e+00, 0.00000000e+00, -1.40664403e-01, 1.11927506e-03, -1.87227793e-01, 0.00000000e+00, -1.67275945e+02, 0.00000000e+00, 0.00000000e+00, -2.16479101e+00, 1.01296849e+02, 0.00000000e+00, -6.65138668e+00, -2.87542680e+00, -4.32346388e+00, -1.12342364e+00, 0.00000000e+00, -2.3543176423, 3.0090949112, -2.9968686063, 2.1585061221, 10.0000000000, 274.1976312063, 2.3400628388
         610, -1.87223712e-01, 1.10565488e-03, 0.00000000e+00, 0.00000000e+00, 0.00000000e+00, -1.40662967e-01, 1.10565488e-03, -1.87223712e-01, 0.00000000e+00, -1.69332868e+02, 0.00000000e+00, 0.00000000e+00, -2.08190680e+00, 1.01203804e+02, 0.00000000e+00, -6.65610686e+00, -2.88108966e+00, -4.29075972e+00, -1.12896434e+00, 0.00000000e+00, -2.3517449157, 2.2385112863, -3.0114687722, 2.2311375078, 10.0000000000, 272.9891700647, 2.3792834222
         620, -1.87219463e-01, 1.09340272e-03, 0.00000000e+00, 0.00000000e+00, 0.00000000e+00, -1.40661546e-01, 1.09340272e-03, -1.87219463e-01, 0.00000000e+00, -1.71226448e+02, 0.00000000e+00, 0.00000000e+00, -2.17159009e+00, 1.01120732e+02, 0.00000000e+00, -6.65963394e+00, -2.88667502e+00, -4.30731937e+00, -1.13333729e+00, 0.00000000e+00, -2.3419555240, 2.4690173752, -2.9970206546, 2.2636056669, 10.0000000000, 270.2111529063, 2.4182444219
         630, -1.87215259e-01, 1.08136362e-03, 0.00000000e+00, 0.00000000e+00, 0.00000000e+00, -1.40660059e-01, 1.08136362e-03, -1.87215259e-01, 0.00000000e+00, -1.73128866e+02, 0.00000000e+00, 0.00000000e+00, -2.10734610e+00, 1.01044078e+02, 0.00000000e+00, -6.66303009e+00, -2.89144320e+00, -4.29055104e+00, -1.13793380e+00, 0.00000000e+00, -2.3389526334, 2.3576063034, -2.9803715162, 2.2254589300, 10.0000000000, 268.5760543110, 2.4572223035
         640, -1.87210831e-01, 1.07065262e-03, 0.00000000e+00, 0.00000000e+00, 0.00000000e+00, -1.40658559e-01, 1.07065262e-03, -1.87210831e-01, 0.00000000e+00, -1.74856744e+02, 0.00000000e+00, 0.00000000e+00, -2.21362434e+00, 1.00975399e+02, 0.00000000e+00, -6.66419931e+00, -2.89612547e+00, -4.30102971e+00, -1.14087592e+00, 0.00000000e+00, -2.3329178203, 3.0674190200, -2.9694502458, 2.3133926778, 10.0000000000, 265.1629162769, 2.4964161337
         650, -1.87206499e-01, 1.06018961e-03, 0.00000000e+00, 0.00000000e+00, 0.00000000e+00, -1.40657024e-01, 1.06018961e-03, -1.87206499e-01, 0.00000000e+00, -1.76578318e+02, 0.00000000e+00, 0.00000000e+00, -2.14930622e+00, 1.00910860e+02, 0.00000000e+00, -6.66523439e+00, -2.89996335e+00, -4.36208829e+00, -1.14346555e+00, 0.00000000e+00, -2.3227972522, 2.3513748325, -2.9598435134, 2.2525959810, 10.0000000000, 258.9972308563, 2.5353955100