TITLE = "SU2 Simulation"
VARIABLES = "Iteration","CL","CD","CSF","CMx","CMy","CMz","CFx","CFy","CFz","CL/CD","AoA","Custom_ObjFunc","HeatFlux_Total","HeatFlux_Maximum","Temperature_Total","Res_Flow[0]","Res_Flow[1]","Res_Flow[2]","Res_Flow[3]","Res_Flow[4]"," Res_Turb[0]"," Res_Turb[1]"," Res_Turb[2]"," Res_Turb[3]","Linear_Solver_Iterations","CFL_Number","Time(min)"
ZONE T= "Convergence history"
           0, -4.00000039e-01, 2.01249574e-01, 0.00000000e+00, 0.00000000e+00, 0.00000000e+00, -3.00000136e-01, 2.01249574e-01, -4.00000039e-01, 0.00000000e+00, -1.98758204e+00, 0.00000000e+00, 0.00000000e+00, -8.94492056e+04, 7.91361305e+04, 0.00000000e+00, -2.26369284e+00, 6.52141827e-02, 1.21914533e-01, 3.20528024e+00, 0.00000000e+00, 2.6670671990, 6.8533113732, 1.9409554169, 8.2660433588, 8.0000000000, 10.0000000000, 0.0016997814
          10, -1.33624509e-02, 8.44016239e-02, 0.00000000e+00, 0.00000000e+00, 0.00000000e+00, -2.77526606e-02, 8.44016239e-02, -1.33624509e-02, 0.00000000e+00, -1.58319832e-01, 0.00000000e+00, 0.00000000e+00, -8.22733495e+03, 7.27762171e+03, 0.00000000e+00, -3.11067005e+00, -4.61970138e-01, -7.23127428e-01, 2.37110302e+00, 0.00000000e+00, 0.6488003618, 6.9454317675, 0.7720549562, 6.5200240938, 10.0000000000, 25.0834341232, 0.0095971664
          20, -3.41865959e-01, 5.39549656e-02, 0.00000000e+00, 0.00000000e+00, 0.00000000e+00, -2.59105669e-01, 5.39549656e-02, -3.41865959e-01, 0.00000000e+00, -6.33613524e+00, 0.00000000e+00, 0.00000000e+00, -3.71396659e+03, 3.28030057e+03, 0.00000000e+00, -3.45178206e+00, -8.08801531e-01, -8.06418591e-01, 2.03323848e+00, 0.00000000e+00, 0.3209138003, 6.4613621983, 0.2436290201, 5.8324452632, 10.0000000000, 37.2119760623, 0.0163764159
          30, -1.90720645e-01, 4.04014227e-02, 0.00000000e+00, 0.00000000e+00, 0.00000000e+00, -9.51340992e-02, 4.04014227e-02, -1.90720645e-01, 0.00000000e+00, -4.72064181e+00, 0.00000000e+00, 0.00000000e+00, -1.98967315e+03, 1.77048319e+03, 0.00000000e+00, -3.49338995e+00, -8.73045261e-01, -1.11509160e+00, 1.98307773e+00, 0.00000000e+00, 0.0435000279, 6.4434786681, -0.2140079177, 5.2611247443, 10.0000000000, 36.4334003883, 0.0229861339
          40, -1.17032265e-01, 3.29645325e-02, 0.00000000e+00, 0.00000000e+00, 0.00000000e+00, -1.18000934e-01, 3.29645325e-02, -1.17032265e-01, 0.00000000e+00, -3.55024798e+00, 0.00000000e+00, 0.00000000e+00, -1.25200170e+03, 1.10909282e+03, 0.00000000e+00, -3.62468792e+00, -1.08838215e+00, -9.75421145e-01, 1.84844257e+00, 0.00000000e+00, -0.1720141999, 6.1724095631, -0.3711845995, 4.9502354825, 10.0000000000, 42.6698484534, 0.0295683980
          50, -2.16174601e-01, 2.78452957e-02, 0.00000000e+00, 0.00000000e+00, 0.00000000e+00, -1.59313257e-01, 2.78452957e-02, -2.16174601e-01, 0.00000000e+00, -7.76341551e+00, 0.00000000e+00, 0.00000000e+00, -8.75583426e+02, 7.72835863e+02, 0.00000000e+00, -3.82301070e+00, -1.23906049e+00, -1.31776493e+00, 1.63718555e+00, 0.00000000e+00, -0.3481128041, 5.8266270168, -0.7277818328, 4.6909592198, 10.0000000000, 53.5463172262, 0.0365084648
          60, -1.79337328e-01, 2.38265212e-02, 0.00000000e+00, 0.00000000e+00, 0.00000000e+00, -1.29833608e-01, 2.38265212e-02, -1.79337328e-01, 0.00000000e+00, -7.52679446e+00, 0.00000000e+00, 0.00000000e+00, -6.26511483e+02, 5.72482119e+02, 0.00000000e+00, -3.93639983e+00, -1.30839542e+00, -1.57847693e+00, 1.53904790e+00, 0.00000000e+00, -0.5009505821, 5.5226289662, -0.6152697063, 4.5705183335, 10.0000000000, 60.0724343695, 0.0428125819
          70, -1.87303930e-01, 2.07534940e-02, 0.00000000e+00, 0.00000000e+00, 0.00000000e+00, -1.43031918e-01, 2.07534940e-02, -1.87303930e-01, 0.00000000e+00, -9.02517572e+00, 0.00000000e+00, 0.00000000e+00, -4.67787958e+02, 4.14268317e+02, 0.00000000e+00, -4.09705909e+00, -1.43314585e+00, -1.70888666e+00, 1.38136006e+00, 0.00000000e+00, -0.6423394635, 5.2751848218, -0.9560373136, 4.3504933702, 10.0000000000, 58.6019354789, 0.0490665317
          80, -1.85118640e-01, 1.84990818e-02, 0.00000000e+00, 0.00000000e+00, 0.00000000e+00, -1.37438502e-01, 1.84990818e-02, -1.85118640e-01, 0.00000000e+00, -1.00069097e+01, 0.00000000e+00, 0.00000000e+00, -3.68344461e+02, 3.61353333e+02, 0.00000000e+00, -4.27850397e+00, -1.51045475e+00, -1.87222723e+00, 1.20209836e+00, 0.00000000e+00, -0.7266805487, 5.0867030511, -1.0428203289, 4.0737080083, 10.0000000000, 58.3566462523, 0.0553236683
          90, -1.87044410e-01, 1.67129964e-02, 0.00000000e+00, 0.00000000e+00, 0.00000000e+00, -1.40888783e-01, 1.67129964e-02, -1.87044410e-01, 0.00000000e+00, -1.11915546e+01, 0.00000000e+00, 0.00000000e+00, -2.97491446e+02, 2.74523918e+02, 0.00000000e+00, -4.45469179e+00, -1.57277719e+00, -2.06334697e+00, 1.02166471e+00, 0.00000000e+00, -0.7902397660, 4.9329823406, -1.1115336705, 3.9823174740, 10.0000000000, 68.5111050823, 0.0615563313
         100, -1.86574539e-01, 1.50515228e-02, 0.00000000e+00, 0.00000000e+00, 0.00000000e+00, -1.39813108e-01, 1.50515228e-02, -1.86574539e-01, 0.00000000e+00, -1.23957251e+01, 0.00000000e+00, 0.00000000e+00, -2.38366134e+02, 2.52436566e+02, 0.00000000e+00, -4.66270708e+00, -1.63035803e+00, -2.21222924e+00, 8.14749777e-01, 0.00000000e+00, -0.8645500384, 4.7839323507, -1.1991743616, 3.9996989493, 10.0000000000, 86.8767280719, 0.0677620014
         110, -1.86226751e-01, 1.34660618e-02, 0.00000000e+00, 0.00000000e+00, 0.00000000e+00, -1.39887008e-01, 1.34660618e-02, -1.86226751e-01, 0.00000000e+00, -1.38293403e+01, 0.00000000e+00, 0.00000000e+00, -1.88215547e+02, 2.17293635e+02, 0.00000000e+00, -4.90244537e+00, -1.68697948e+00, -2.48083026e+00, 5.72834050e-01, 0.00000000e+00, -0.9286225891, 4.6300808437, -1.2888816510, 3.8287548253, 10.0000000000, 99.9000000000, 0.0740073840
         120, -1.87146888e-01, 1.21758583e-02, 0.00000000e+00, 0.00000000e+00, 0.00000000e+00, -1.40249580e-01, 1.21758583e-02, -1.87146888e-01, 0.00000000e+00, -1.53703241e+01, 0.00000000e+00, 0.00000000e+00, -1.52036452e+02, 1.99778502e+02, 0.00000000e+00, -5.16262420e+00, -1.74037855e+00, -2.72816286e+00, 3.03297716e-01, 0.00000000e+00, -0.9862509316, 4.4924634139, -1.3841554820, 4.1396694244, 10.0000000000, 99.9000000000, 0.0802217484
         130, -1.87058080e-01, 1.11285119e-02, 0.00000000e+00, 0.00000000e+00, 0.00000000e+00, -1.40370253e-01, 1.11285119e-02, -1.87058080e-01, 0.00000000e+00, -1.68089032e+01, 0.00000000e+00, 0.00000000e+00, -1.25934396e+02, 1.87913705e+02, 0.00000000e+00, -5.38413605e+00, -1.78748029e+00, -2.95820500e+00, 6.19196127e-02, 0.00000000e+00, -0.3802828062, 4.3709912534, -1.3486379140, 3.5493456053, 10.0000000000, 99.9000000000, 0.0864218990
         140, -1.87067003e-01, 1.02625727e-02, 0.00000000e+00, 0.00000000e+00, 0.00000000e+00, -1.40368767e-01, 1.02625727e-02, -1.87067003e-01, 0.00000000e+00, -1.82280807e+01, 0.00000000e+00, 0.00000000e+00, -1.06399074e+02, 1.80509516e+02, 0.00000000e+00, -5.48761262e+00, -1.82870855e+00, -3.08909193e+00, -4.41592944e-02, 0.00000000e+00, -1.0994143876, 4.2617363995, -1.5502991298, 3.4096303862, 10.0000000000, 99.9000000000, 0.0926820993
         150, -1.87168198e-01, 9.53362546e-03, 0.00000000e+00, 0.00000000e+00, 0.00000000e+00, -1.40425293e-01, 9.53362546e-03, -1.87168198e-01, 0.00000000e+00, -1.96324261e+01, 0.00000000e+00, 0.00000000e+00, -9.13498264e+01, 1.74834935e+02, 0.00000000e+00, -5.56437085e+00, -1.86616819e+00, -3.23167551e+00, -1.21213078e-01, 0.00000000e+00, -1.1578879848, 4.1618028909, -1.6244412294, 3.3473935506, 10.0000000000, 99.9000000000, 0.0988947153
         160, -1.87197072e-01, 8.91081898e-03, 0.00000000e+00, 0.00000000e+00, 0.00000000e+00, -1.40470078e-01, 8.91081898e-03, -1.87197072e-01, 0.00000000e+00, -2.10078415e+01, 0.00000000e+00, 0.00000000e+00, -7.94636770e+01, 1.70238400e+02, 0.00000000e+00, -5.63034148e+00, -1.90053414e+00, -3.38419494e+00, -1.84279409e-01, 0.00000000e+00, -1.2016073870, 4.0693746176, -1.6951308319, 3.2059576661, 10.0000000000, 99.9000000000, 0.1050690015
         170, -1.87233252e-01, 8.37192084e-03, 0.00000000e+00, 0.00000000e+00, 0.00000000e+00, -1.40496957e-01, 8.37192084e-03, -1.87233252e-01, 0.00000000e+00, -2.23644318e+01, 0.00000000e+00, 0.00000000e+00, -6.98761824e+01, 1.66793114e+02, 0.00000000e+00, -5.68080372e+00, -1.93228131e+00, -3.50530805e+00, -2.30419695e-01, 0.00000000e+00, -1.2566487817, 3.9830546035, -1.7583252097, 3.2713910060, 10.0000000000, 99.9000000000, 0.1113207817
         180, -1.87255189e-01, 7.90053532e-03, 0.00000000e+00, 0.00000000e+00, 0.00000000e+00, -1.40518541e-01, 7.90053532e-03, -1.87255189e-01, 0.00000000e+00, -2.37015823e+01, 0.00000000e+00, 0.00000000e+00, -6.20331118e+01, 1.63964504e+02, 0.00000000e+00, -5.72729395e+00, -1.96176450e+00, -3.63060468e+00, -2.73101801e-01, 0.00000000e+00, -1.2975863877, 3.9019623808, -1.8222319120, 3.0322904467, 10.0000000000, 99.9000000000, 0.1175390323
         190, -1.87279745e-01, 7.48438653e-03, 0.00000000e+00, 0.00000000e+00, 0.00000000e+00, -1.40541765e-01, 7.48438653e-03, -1.87279745e-01, 0.00000000e+00, -2.50227248e+01, 0.00000000e+00, 0.00000000e+00, -5.55057187e+01, 1.61656562e+02, 0.00000000e+00, -5.76726266e+00, -1.98930676e+00, -3.75921022e+00, -3.09051326e-01, 0.00000000e+00, -1.3492797550, 3.8253345620, -1.8801051168, 3.3078592329, 10.0000000000, 99.9000000000, 0.1237700184
         200, -1.87294402e-01, 7.11400258e-03, 0.00000000e+00, 0.00000000e+00, 0.00000000e+00, -1.40556644e-01, 7.11400258e-03, -1.87294402e-01, 0.00000000e+00, -2.63275701e+01, 0.00000000e+00, 0.00000000e+00, -5.00207222e+01, 1.59754740e+02, 0.00000000e+00, -5.80253408e+00, -2.01525809e+00, -3.87656192e+00, -3.40457550e-01, 0.00000000e+00, -1.3890253714, 3.7526136626, -1.9204543315, 2.8857673836, 10.0000000000, 99.9000000000, 0.1299723824
         210, -1.87307601e-01, 6.78198673e-03, 0.00000000e+00, 0.00000000e+00, 0.00000000e+00, -1.40570168e-01, 6.78198673e-03, -1.87307601e-01, 0.00000000e+00, -2.76183969e+01, 0.00000000e+00, 0.00000000e+00, -4.53535911e+01, 1.58155175e+02, 0.00000000e+00, -5.83514042e+00, -2.03970117e+00, -3.98032698e+00, -3.69685336e-01, 0.00000000e+00, -1.4255958905, 3.6833719426, -1.9780917674, 3.7054931177, 10.0000000000, 99.9000000000, 0.1362011671
         220, -1.87320541e-01, 6.48249190e-03, 0.00000000e+00, 0.00000000e+00, 0.00000000e+00, -1.40583339e-01, 6.48249190e-03, -1.87320541e-01, 0.00000000e+00, -2.88963788e+01, 0.00000000e+00, 0.00000000e+00, -4.13467637e+01, 1.56800761e+02, 0.00000000e+00, -5.86465238e+00, -2.06283668e+00, -4.07476136e+00, -3.95968530e-01, 0.00000000e+00, -1.4766173765, 3.6171914117, -2.0157984025, 2.8639591029, 10.0000000000, 99.9000000000, 0.1424277345
         230, -1.87328111e-01, 6.21083616e-03, 0.00000000e+00, 0.00000000e+00, 0.00000000e+00, -1.40592375e-01, 6.21083616e-03, -1.87328111e-01, 0.00000000e+00, -3.01614961e+01, 0.00000000e+00, 0.00000000e+00, -3.78844921e+01, 1.55647013e+02, 0.00000000e+00, -5.89215915e+00, -2.08475738e+00, -4.16553626e+00, -4.20473604e-01, 0.00000000e+00, -1.5113058345, 3.5539293133, -2.0593937268, 2.6906903370, 10.0000000000, 99.9000000000, 0.1486494978
         240, -1.87336034e-01, 5.96320303e-03, 0.00000000e+00, 0.00000000e+00, 0.00000000e+00, -1.40601222e-01, 5.96320303e-03, -1.87336034e-01, 0.00000000e+00, -3.14153372e+01, 0.00000000e+00, 0.00000000e+00, -3.48623569e+01, 1.54664546e+02, 0.00000000e+00, -5.91794342e+00, -2.10569125e+00, -4.23520144e+00, -4.43556020e-01, 0.00000000e+00, -1.5583117932, 3.4931646479, -2.0957912633, 2.6318804415, 10.0000000000, 99.9000000000, 0.1548717181
         250, -1.87342403e-01, 5.73644500e-03, 0.00000000e+00, 0.00000000e+00, 0.00000000e+00, -1.40608839e-01, 5.73644500e-03, -1.87342403e-01, 0.00000000e+00, -3.26582759e+01, 0.00000000e+00, 0.00000000e+00, -3.22091095e+01, 1.53822058e+02, 0.00000000e+00, -5.94201139e+00, -2.12570621e+00, -4.29008063e+00, -4.65016141e-01, 0.00000000e+00, -1.5948149775, 3.4346758103, -2.1251291351, 2.6697580352, 10.0000000000, 99.9000000000, 0.1610229333
         260, -1.87346850e-01, 5.52795865e-03, 0.00000000e+00, 0.00000000e+00, 0.00000000e+00, -1.40614776e-01, 5.52795865e-03, -1.87346850e-01, 0.00000000e+00, -3.38907836e+01, 0.00000000e+00, 0.00000000e+00, -2.98699271e+01, 1.53095122e+02, 0.00000000e+00, -5.96496293e+00, -2.14479816e+00, -4.34480684e+00, -4.85511801e-01, 0.00000000e+00, -1.6269823074, 3.3784459103, -2.1523209672, 2.5242472681, 10.0000000000, 99.9000000000, 0.1672623158
         270, -1.87351177e-01, 5.33557089e-03, 0.00000000e+00, 0.00000000e+00, 0.00000000e+00, -1.40620406e-01, 5.33557089e-03, -1.87351177e-01, 0.00000000e+00, -3.51136141e+01, 0.00000000e+00, 0.00000000e+00, -2.77927920e+01, 1.52469437e+02, 0.00000000e+00, -5.98677283e+00, -2.16310904e+00, -4.38727300e+00, -5.04983521e-01, 0.00000000e+00, -1.6706521450, 3.3241975378, -2.1781604648, 2.4755327744, 10.0000000000, 99.9000000000, 0.1734915495
         280, -1.87354328e-01, 5.15744843e-03, 0.00000000e+00, 0.00000000e+00, 0.00000000e+00, -1.40625023e-01, 5.15744843e-03, -1.87354328e-01, 0.00000000e+00, -3.63269415e+01, 0.00000000e+00, 0.00000000e+00, -2.59388898e+01, 1.51934981e+02, 0.00000000e+00, -6.00755434e+00, -2.18074877e+00, -4.42430635e+00, -5.23496764e-01, 0.00000000e+00, -1.7049895386, 3.2717210553, -2.1990678495, 2.8014020024, 10.0000000000, 99.9000000000, 0.1798136671
         290, -1.87356786e-01, 4.99203530e-03, 0.00000000e+00, 0.00000000e+00, 0.00000000e+00, -1.40628915e-01, 4.99203530e-03, -1.87356786e-01, 0.00000000e+00, -3.75311420e+01, 0.00000000e+00, 0.00000000e+00, -2.42789460e+01, 1.51483180e+02, 0.00000000e+00, -6.02754995e+00, -2.19767721e+00, -4.45725326e+00, -5.41319710e-01, 0.00000000e+00, -1.7358103428, 3.2211535259, -2.2173713862, 2.3836534550, 10.0000000000, 99.9000000000, 0.1860291839
         300, -1.87358912e-01, 4.83799483e-03, 0.00000000e+00, 0.00000000e+00, 0.00000000e+00, -1.40632409e-01, 4.83799483e-03, -1.87358912e-01, 0.00000000e+00, -3.87265630e+01, 0.00000000e+00, 0.00000000e+00, -2.27866499e+01, 1.51112989e+02, 0.00000000e+00, -6.04662298e+00, -2.21403615e+00, -4.48851657e+00, -5.58285404e-01, 0.00000000e+00, -1.7646492295, 3.1720718831, -2.2350717686, 2.3320716699, 10.0000000000, 99.9000000000, 0.1922111670
         310, -1.87360365e-01, 4.69416751e-03, 0.00000000e+00, 0.00000000e+00, 0.00000000e+00, -1.40635257e-01, 4.69416751e-03, -1.87360365e-01, 0.00000000e+00, -3.99134381e+01, 0.00000000e+00, 0.00000000e+00, -2.14380005e+01, 1.50794657e+02, 0.00000000e+00, -6.06496215e+00, -2.22984711e+00, -4.52037157e+00, -5.74562417e-01, 0.00000000e+00, -1.8061177365, 3.1244175644, -2.2520526103, 2.2886097300, 10.0000000000, 99.9000000000, 0.1984135985
         320, -1.87361494e-01, 4.55955265e-03, 0.00000000e+00, 0.00000000e+00, 0.00000000e+00, -1.40637704e-01, 4.55955265e-03, -1.87361494e-01, 0.00000000e+00, -4.10920783e+01, 0.00000000e+00, 0.00000000e+00, -2.02154903e+01, 1.50552726e+02, 0.00000000e+00, -6.08264447e+00, -2.24516822e+00, -4.54968424e+00, -5.90235491e-01, 0.00000000e+00, -1.8374900582, 3.0781106583, -2.2661259632, 2.6139318756, 10.0000000000, 99.9000000000, 0.2046481172
         330, -1.87362289e-01, 4.43329206e-03, 0.00000000e+00, 0.00000000e+00, 0.00000000e+00, -1.40639782e-01, 4.43329206e-03, -1.87362289e-01, 0.00000000e+00, -4.22625638e+01, 0.00000000e+00, 0.00000000e+00, -1.91049548e+01, 1.50456643e+02, 0.00000000e+00, -6.09972697e+00, -2.25996092e+00, -4.57293681e+00, -6.05329399e-01, 0.00000000e+00, -1.8665096235, 3.0332990150, -2.2784994554, 2.3598543819, 10.0000000000, 99.9000000000, 0.2109486500
         340, -1.87362727e-01, 4.31463647e-03, 0.00000000e+00, 0.00000000e+00, 0.00000000e+00, -1.40641469e-01, 4.31463647e-03, -1.87362727e-01, 0.00000000e+00, -4.34249162e+01, 0.00000000e+00, 0.00000000e+00, -1.80937640e+01, 1.50427369e+02, 0.00000000e+00, -6.11627542e+00, -2.27427186e+00, -4.59754499e+00, -6.19912057e-01, 0.00000000e+00, -1.8925817040, 2.9898467376, -2.2907000444, 2.2109252934, 10.0000000000, 99.9000000000, 0.2172608336
         350, -1.87362964e-01, 4.20292206e-03, 0.00000000e+00, 0.00000000e+00, 0.00000000e+00, -1.40642887e-01, 4.20292206e-03, -1.87362964e-01, 0.00000000e+00, -4.45792143e+01, 0.00000000e+00, 0.00000000e+00, -1.71700900e+01, 1.50573643e+02, 0.00000000e+00, -6.13228742e+00, -2.28816975e+00, -4.62197656e+00, -6.33983929e-01, 0.00000000e+00, -1.9169468643, 2.9475676358, -2.3024921454, 2.1309554182, 10.0000000000, 99.9000000000, 0.2234641314
         360, -1.87362972e-01, 4.09755692e-03, 0.00000000e+00, 0.00000000e+00, 0.00000000e+00, -1.40644030e-01, 4.09755692e-03, -1.87362972e-01, 0.00000000e+00, -4.57255325e+01, 0.00000000e+00, 0.00000000e+00, -1.63233515e+01, 1.50842668e+02, 0.00000000e+00, -6.14779313e+00, -2.30171125e+00, -4.64540501e+00, -6.47555688e-01, 0.00000000e+00, -1.9528120131, 2.9062983113, -2.3138173048, 2.1022156599, 10.0000000000, 99.9000000000, 0.2297776182
         370, -1.87362783e-01, 3.99801942e-03, 0.00000000e+00, 0.00000000e+00, 0.00000000e+00, -1.40644922e-01, 3.99801942e-03, -1.87362783e-01, 0.00000000e+00, -4.68639002e+01, 0.00000000e+00, 0.00000000e+00, -1.55456211e+01, 1.51345031e+02, 0.00000000e+00, -6.16279552e+00, -2.31493864e+00, -4.66944100e+00, -6.60630971e-01, 0.00000000e+00, -1.9798325338, 2.8659041402, -2.3003670995, 2.3312594873, 10.0000000000, 99.9000000000, 0.2360005339
         380, -1.87362443e-01, 3.90384903e-03, 0.00000000e+00, 0.00000000e+00, 0.00000000e+00, -1.40645614e-01, 3.90384903e-03, -1.87362443e-01, 0.00000000e+00, -4.79942849e+01, 0.00000000e+00, 0.00000000e+00, -1.48302486e+01, 1.52143707e+02, 0.00000000e+00, -6.17732627e+00, -2.32781707e+00, -4.69189533e+00, -6.73232693e-01, 0.00000000e+00, -2.0058251358, 2.8264980129, -2.3321839000, 2.2498186964, 10.0000000000, 99.9000000000, 0.2422236999
         390, -1.87361942e-01, 3.81465734e-03, 0.00000000e+00, 0.00000000e+00, 0.00000000e+00, -1.40646110e-01, 3.81465734e-03, -1.87361942e-01, 0.00000000e+00, -4.91163230e+01, 0.00000000e+00, 0.00000000e+00, -1.41740885e+01, 1.54588449e+02, 0.00000000e+00, -6.19149610e+00, -2.34033699e+00, -4.71176171e+00, -6.85452048e-01, 0.00000000e+00, -2.0298821514, 2.7960328843, -2.3428061737, 2.3630507447, 10.0000000000, 99.9000000000, 0.2484002511
         400, -1.87361325e-01, 3.73002157e-03, 0.00000000e+00, 0.00000000e+00, 0.00000000e+00, -1.40646445e-01, 3.73002157e-03, -1.87361325e-01, 0.00000000e+00, -5.02306277e+01, 0.00000000e+00, 0.00000000e+00, -1.35679602e+01, 1.56686288e+02, 0.00000000e+00, -6.20534591e+00, -2.35250954e+00, -4.72957778e+00, -6.97318716e-01, 0.00000000e+00, -2.0517456245, 2.7759225545, -2.3522001849, 2.1322232577, 10.0000000000, 99.9000000000, 0.2546003183
         410, -1.87360641e-01, 3.64952307e-03, 0.00000000e+00, 0.00000000e+00, 0.00000000e+00, -1.40646630e-01, 3.64952307e-03, -1.87360641e-01, 0.00000000e+00, -5.13383907e+01, 0.00000000e+00, 0.00000000e+00, -1.30024013e+01, 1.56152101e+02, 0.00000000e+00, -6.21885692e+00, -2.36438553e+00, -4.74741778e+00, -7.08813907e-01, 0.00000000e+00, -2.0721266407, 2.7262959171, -2.3611748144, 1.9800968260, 10.0000000000, 99.9000000000, 0.2608011166
         420, -1.87359881e-01, 3.57295654e-03, 0.00000000e+00, 0.00000000e+00, 0.00000000e+00, -1.40646683e-01, 3.57295654e-03, -1.87359881e-01, 0.00000000e+00, -5.24383319e+01, 0.00000000e+00, 0.00000000e+00, -1.24773793e+01, 1.55244672e+02, 0.00000000e+00, -6.23204178e+00, -2.37599170e+00, -4.76511797e+00, -7.19948843e-01, 0.00000000e+00, -2.0913126278, 2.6840072006, -2.3697038043, 1.8976858242, 10.0000000000, 99.9000000000, 0.2669762850
         430, -1.87359061e-01, 3.50006023e-03, 0.00000000e+00, 0.00000000e+00, 0.00000000e+00, -1.40646624e-01, 3.50006023e-03, -1.87359061e-01, 0.00000000e+00, -5.35302391e+01, 0.00000000e+00, 0.00000000e+00, -1.19896012e+01, 1.54324835e+02, 0.00000000e+00, -6.24492137e+00, -2.38734386e+00, -4.78197840e+00, -7.30738748e-01, 0.00000000e+00, -2.1098331619, 2.6469719572, -2.3779248692, 2.8460266458, 10.0000000000, 99.9000000000, 0.2731717348
         440, -1.87358196e-01, 3.43058810e-03, 0.00000000e+00, 0.00000000e+00, 0.00000000e+00, -1.40646468e-01, 3.43058810e-03, -1.87358196e-01, 0.00000000e+00, -5.46140168e+01, 0.00000000e+00, 0.00000000e+00, -1.15358758e+01, 1.53454585e+02, 0.00000000e+00, -6.25745393e+00, -2.39850229e+00, -4.79855239e+00, -7.41140856e-01, 0.00000000e+00, -2.1360390587, 2.6114898676, -2.3864382782, 1.8551144974, 10.0000000000, 99.9000000000, 0.2793983181
         450, -1.87357278e-01, 3.36431708e-03, 0.00000000e+00, 0.00000000e+00, 0.00000000e+00, -1.40646217e-01, 3.36431708e-03, -1.87357278e-01, 0.00000000e+00, -5.56895422e+01, 0.00000000e+00, 0.00000000e+00, -1.11133922e+01, 1.52639896e+02, 0.00000000e+00, -6.26971849e+00, -2.40942324e+00, -4.81422281e+00, -7.51230802e-01, 0.00000000e+00, -2.1538550248, 2.5771792780, -2.3945818342, 1.8188372138, 10.0000000000, 99.9000000000, 0.2855937322
         460, -1.87356325e-01, 3.30104658e-03, 0.00000000e+00, 0.00000000e+00, 0.00000000e+00, -1.40645888e-01, 3.30104658e-03, -1.87356325e-01, 0.00000000e+00, -5.67566440e+01, 0.00000000e+00, 0.00000000e+00, -1.07196867e+01, 1.51878791e+02, 0.00000000e+00, -6.28172886e+00, -2.42010911e+00, -4.82846380e+00, -7.61020427e-01, 0.00000000e+00, -2.1699861266, 2.5438046755, -2.4024468074, 1.7875998579, 10.0000000000, 99.9000000000, 0.2918001016
         470, -1.87355341e-01, 3.24059477e-03, 0.00000000e+00, 0.00000000e+00, 0.00000000e+00, -1.40645485e-01, 3.24059477e-03, -1.87355341e-01, 0.00000000e+00, -5.78151094e+01, 0.00000000e+00, 0.00000000e+00, -1.03525187e+01, 1.51168066e+02, 0.00000000e+00, -6.29348865e+00, -2.43057016e+00, -4.84148121e+00, -7.70514125e-01, 0.00000000e+00, -2.1845220140, 2.5112277518, -2.4101435105, 1.7714134599, 10.0000000000, 99.9000000000, 0.2980311672
         480, -1.87354332e-01, 3.18279495e-03, 0.00000000e+00, 0.00000000e+00, 0.00000000e+00, -1.40645017e-01, 3.18279495e-03, -1.87354332e-01, 0.00000000e+00, -5.88647194e+01, 0.00000000e+00, 0.00000000e+00, -1.00098254e+01, 1.50505275e+02, 0.00000000e+00, -6.30500115e+00, -2.44081567e+00, -4.85347294e+00, -7.79717171e-01, 0.00000000e+00, -2.1975153856, 2.4793645963, -2.4171994675, 1.7401379840, 10.0000000000, 99.9000000000, 0.3043136001
         490, -1.87353302e-01, 3.12749354e-03, 0.00000000e+00, 0.00000000e+00, 0.00000000e+00, -1.40644488e-01, 3.12749354e-03, -1.87353302e-01, 0.00000000e+00, -5.99052562e+01, 0.00000000e+00, 0.00000000e+00, -9.68973512e+00, 1.49888445e+02, 0.00000000e+00, -6.31626913e+00, -2.45085381e+00, -4.86438383e+00, -7.88634180e-01, 0.00000000e+00, -2.2090090984, 2.4481557777, -2.4249574992, 1.7224441572, 10.0000000000, 99.9000000000, 0.3105382681
         500, -1.87352254e-01, 3.07454901e-03, 0.00000000e+00, 0.00000000e+00, 0.00000000e+00, -1.40643903e-01, 3.07454901e-03, -1.87352254e-01, 0.00000000e+00, -6.09364993e+01, 0.00000000e+00, 0.00000000e+00, -9.39055076e+00, 1.49313786e+02, 0.00000000e+00, -6.32729631e+00, -2.46069168e+00, -4.87431559e+00, -7.97270954e-01, 0.00000000e+00, -2.2190271468, 2.4175558456, -2.4322154961, 1.7074533175, 10.0000000000, 99.9000000000, 0.3167578340
         510, -1.87351191e-01, 3.02383101e-03, 0.00000000e+00, 0.00000000e+00, 0.00000000e+00, -1.40643266e-01, 3.02383101e-03, -1.87351191e-01, 0.00000000e+00, -6.19582213e+01, 0.00000000e+00, 0.00000000e+00, -9.11073586e+00, 1.48776720e+02, 0.00000000e+00, -6.33808452e+00, -2.47033555e+00, -4.88331539e+00, -8.05632633e-01, 0.00000000e+00, -2.2276088404, 2.3875247585, -2.4393486901, 1.6917880285, 10.0000000000, 99.9000000000, 0.3229809682
         520, -1.87350116e-01, 2.97521957e-03, 0.00000000e+00, 0.00000000e+00, 0.00000000e+00, -1.40642578e-01, 2.97521957e-03, -1.87350116e-01, 0.00000000e+00, -6.29701816e+01, 0.00000000e+00, 0.00000000e+00, -8.84890652e+00, 1.48272848e+02, 0.00000000e+00, -6.34860259e+00, -2.47979075e+00, -4.89178810e+00, -8.13696134e-01, 0.00000000e+00, -2.2349984196, 2.3579320578, -2.4463074844, 1.6938974217, 10.0000000000, 99.9000000000, 0.3291914980
         530, -1.87349029e-01, 2.92860424e-03, 0.00000000e+00, 0.00000000e+00, 0.00000000e+00, -1.40641841e-01, 2.92860424e-03, -1.87349029e-01, 0.00000000e+00, -6.39721223e+01, 0.00000000e+00, 0.00000000e+00, -8.60379097e+00, 1.47798325e+02, 0.00000000e+00, -6.35887939e+00, -2.48905864e+00, -4.89936389e+00, -8.21492847e-01, 0.00000000e+00, -2.2409204000, 2.3288679167, -2.4355227601, 1.6777453807, 10.0000000000, 99.9000000000, 0.3354077816
         540, -1.87347931e-01, 2.88388329e-03, 0.00000000e+00, 0.00000000e+00, 0.00000000e+00, -1.40641054e-01, 2.88388329e-03, -1.87347931e-01, 0.00000000e+00, -6.49637699e+01, 0.00000000e+00, 0.00000000e+00, -8.37425507e+00, 1.47350196e+02, 0.00000000e+00, -6.36892740e+00, -2.49814334e+00, -4.90578068e+00, -8.29040785e-01, 0.00000000e+00, -2.2453951977, 2.3003461818, -2.4582268562, 1.6818434988, 10.0000000000, 99.9000000000, 0.3415845513
         550, -1.87346821e-01, 2.84096315e-03, 0.00000000e+00, 0.00000000e+00, 0.00000000e+00, -1.40640219e-01, 2.84096315e-03, -1.87346821e-01, 0.00000000e+00, -6.59448261e+01, 0.00000000e+00, 0.00000000e+00, -8.15927971e+00, 1.46926420e+02, 0.00000000e+00, -6.37874426e+00, -2.50704858e+00, -4.91112072e+00, -8.36345195e-01, 0.00000000e+00, -2.2485337567, 2.2723528832, -2.4656825171, 1.6541642407, 10.0000000000, 99.9000000000, 0.3478147825
         560, -1.87345700e-01, 2.79975777e-03, 0.00000000e+00, 0.00000000e+00, 0.00000000e+00, -1.40639335e-01, 2.79975777e-03, -1.87345700e-01, 0.00000000e+00, -6.69149675e+01, 0.00000000e+00, 0.00000000e+00, -7.95793063e+00, 1.46526002e+02, 0.00000000e+00, -6.38832025e+00, -2.51577907e+00, -4.91548427e+00, -8.43404662e-01, 0.00000000e+00, -2.2504290934, 2.2448627677, -2.4721644614, 1.6489282081, 10.0000000000, 99.9000000000, 0.3540610154
         570, -1.87344567e-01, 2.76018767e-03, 0.00000000e+00, 0.00000000e+00, 0.00000000e+00, -1.40638401e-01, 2.76018767e-03, -1.87344567e-01, 0.00000000e+00, -6.78738513e+01, 0.00000000e+00, 0.00000000e+00, -7.76931143e+00, 1.46146499e+02, 0.00000000e+00, -6.39764427e+00, -2.52433803e+00, -4.91890252e+00, -8.50218426e-01, 0.00000000e+00, -2.2511465859, 2.2178694328, -2.4783056790, 1.6420616768, 10.0000000000, 99.9000000000, 0.3602712512
         580, -1.87343422e-01, 2.72217910e-03, 0.00000000e+00, 0.00000000e+00, 0.00000000e+00, -1.40637415e-01, 2.72217910e-03, -1.87343422e-01, 0.00000000e+00, -6.88211227e+01, 0.00000000e+00, 0.00000000e+00, -7.59261678e+00, 1.45784422e+02, 0.00000000e+00, -6.40671088e+00, -2.53272608e+00, -4.92139666e+00, -8.56792370e-01, 0.00000000e+00, -2.2507812966, 2.1913982769, -2.4839034200, 1.6428819649, 10.0000000000, 99.9000000000, 0.3664999008
         590, -1.87342264e-01, 2.68566364e-03, 0.00000000e+00, 0.00000000e+00, 0.00000000e+00, -1.40636377e-01, 2.68566364e-03, -1.87342264e-01, 0.00000000e+00, -6.97564140e+01, 0.00000000e+00, 0.00000000e+00, -7.42712204e+00, 1.45436875e+02, 0.00000000e+00, -6.41551425e+00, -2.54094357e+00, -4.92300752e+00, -8.63130513e-01, 0.00000000e+00, -2.2494381716, 2.1654726564, -2.4896315748, 1.6419264143, 10.0000000000, 99.9000000000, 0.3727416833
         600, -1.87341093e-01, 2.65056119e-03, 0.00000000e+00, 0.00000000e+00, 0.00000000e+00, -1.40635282e-01, 2.65056119e-03, -1.87341093e-01, 0.00000000e+00, -7.06797843e+01, 0.00000000e+00, 0.00000000e+00, -7.27209853e+00, 1.45102644e+02, 0.00000000e+00, -6.42401957e+00, -2.54899480e+00, -4.92352332e+00, -8.69214020e-01, 0.00000000e+00, -2.2472126320, 2.1401102226, -2.4950739242, 1.6320037646, 10.0000000000, 99.9000000000, 0.3789715012
         610, -1.87339908e-01, 2.61683090e-03, 0.00000000e+00, 0.00000000e+00, 0.00000000e+00, -1.40634130e-01, 2.61683090e-03, -1.87339908e-01, 0.00000000e+00, -7.15903761e+01, 0.00000000e+00, 0.00000000e+00, -7.12699557e+00, 1.44781315e+02, 0.00000000e+00, -6.43228064e+00, -2.55687597e+00, -4.92341251e+00, -8.75096055e-01, 0.00000000e+00, -2.2442029279, 2.1153599418, -2.5003063560, 1.6353446370, 10.0000000000, 99.9000000000, 0.3852158666
         620, -1.87338709e-01, 2.58441730e-03, 0.00000000e+00, 0.00000000e+00, 0.00000000e+00, -1.40632918e-01, 2.58441730e-03, -1.87338709e-01, 0.00000000e+00, -7.24877941e+01, 0.00000000e+00, 0.00000000e+00, -6.99126996e+00, 1.44472394e+02, 0.00000000e+00, -6.44025664e+00, -2.56458711e+00, -4.92250838e+00, -8.80753007e-01, 0.00000000e+00, -2.2405015724, 2.0912686774, -2.5049878078, 1.6437775233, 10.0000000000, 99.9000000000, 0.3914317648
         630, -1.87337495e-01, 2.55326886e-03, 0.00000000e+00, 0.00000000e+00, 0.00000000e+00, -1.40631646e-01, 2.55326886e-03, -1.87337495e-01, 0.00000000e+00, -7.33716288e+01, 0.00000000e+00, 0.00000000e+00, -6.86442426e+00, 1.44175284e+02, 0.00000000e+00, -6.44793912e+00, -2.57212794e+00, -4.92080804e+00, -8.86188163e-01, 0.00000000e+00, -2.2362008670, 2.0678937196, -2.5097766892, 1.6408270715, 10.0000000000, 99.9000000000, 0.3976412177
         640, -1.87336265e-01, 2.52333754e-03, 0.00000000e+00, 0.00000000e+00, 0.00000000e+00, -1.40630309e-01, 2.52333754e-03, -1.87336265e-01, 0.00000000e+00, -7.42414609e+01, 0.00000000e+00, 0.00000000e+00, -6.74596580e+00, 1.43889394e+02, 0.00000000e+00, -6.45532069e+00, -2.57949790e+00, -4.91833421e+00, -8.91405032e-01, 0.00000000e+00, -2.2313787766, 2.0453022054, -2.5140543205, 1.6350639671, 10.0000000000, 99.9000000000, 0.4039008339
         650, -1.87335020e-01, 2.49457847e-03, 0.00000000e+00, 0.00000000e+00, 0.00000000e+00, -1.40628905e-01, 2.49457847e-03, -1.87335020e-01, 0.00000000e+00, -7.50968640e+01, 0.00000000e+00, 0.00000000e+00, -6.63547343e+00, 1.43614151e+02, 0.00000000e+00, -6.46239308e+00, -2.58669603e+00, -4.91512006e+00, -8.96407045e-01, 0.00000000e+00, -2.2261191806, 2.0235736336, -2.5182176081, 1.6353374398, 10.0000000000, 99.9000000000, 0.4101618648