TITLE = "SU2 Simulation"
VARIABLES = "Iteration","CL","CD","CSF","CMx","CMy","CMz","CFx","CFy","CFz","CL/CD","AoA","Custom_ObjFunc","HeatFlux_Total","HeatFlux_Maximum","Temperature_Total","Res_Flow[0]","Res_Flow[1]","Res_Flow[2]","Res_Flow[3]","Res_Flow[4]","Res_Turb[0]","Res_Turb[1]","Linear_Solver_Iterations","CFL_Number","Time(min)"
ZONE T= "Convergence history"
           0, -4.17610538e-01, 1.14682385e-01, 0.00000000e+00, 0.00000000e+00, 0.00000000e+00, -3.13214353e-01, 1.14682385e-01, -4.17610538e-01, 0.00000000e+00, -3.64145321e+00, 0.00000000e+00, 0.00000000e+00, -1.59066043e+07, 1.40709070e+07, 0.00000000e+00, -1.55646621e+01, -6.11260646e+00, -6.64721476e+00, 4.72224245e+00, 0.00000000e+00, -3.1763975706, 7.4559259425, 1.0000000000, 2.5000000000, 0.0013352633
          10, -3.85114681e-02, 2.89399173e-02, 0.00000000e+00, 0.00000000e+00, 0.00000000e+00, -2.88910592e-02, 2.89399173e-02, -3.85114681e-02, 0.00000000e+00, -1.33073871e+00, 0.00000000e+00, 0.00000000e+00, -3.25451997e+05, 2.89410904e+05, 0.00000000e+00, -1.49930420e+00, 1.39393844e+00, 1.00183784e+00, 4.26088811e+00, 0.00000000e+00, -3.7462570997, 7.7658784409, 4.0000000000, 4.2988485061, 0.0085084637
          20, -6.56370201e-03, 2.00346893e-02, 0.00000000e+00, 0.00000000e+00, 0.00000000e+00, -4.91606653e-03, 2.00346893e-02, -6.56370201e-03, 0.00000000e+00, -3.27616860e-01, 0.00000000e+00, 0.00000000e+00, -1.09897473e+05, 1.17653149e+05, 0.00000000e+00, -1.91822887e+00, 9.47049752e-01, 6.47398424e-01, 3.83206143e+00, 0.00000000e+00, -3.9119454035, 6.3919578199, 7.0000000000, 7.1219701319, 0.0140952826
          30, -4.29551315e-03, 1.56855968e-02, 0.00000000e+00, 0.00000000e+00, 0.00000000e+00, -3.21309463e-03, 1.56855968e-02, -4.29551315e-03, 0.00000000e+00, -2.73850794e-01, 0.00000000e+00, 0.00000000e+00, -6.59576675e+04, 6.99720450e+04, 0.00000000e+00, -2.06272173e+00, 7.82699870e-01, 4.98600395e-01, 3.67115059e+00, 0.00000000e+00, -4.0017020255, 5.6455449945, 8.0000000000, 8.6536315565, 0.0208940665
          40, -3.94833881e-03, 1.29629966e-02, 0.00000000e+00, 0.00000000e+00, 0.00000000e+00, -2.94298742e-03, 1.29629966e-02, -3.94833881e-03, 0.00000000e+00, -3.04585347e-01, 0.00000000e+00, 0.00000000e+00, -3.11788291e+04, 4.33032976e+04, 0.00000000e+00, -2.12766087e+00, 6.86486820e-01, 4.26127857e-01, 3.57977268e+00, 0.00000000e+00, -4.0541083553, 5.3832896822, 8.0000000000, 9.2711463069, 0.0275990645
          50, -3.63351343e-03, 1.09889705e-02, 0.00000000e+00, 0.00000000e+00, 0.00000000e+00, -2.58646840e-03, 1.09889705e-02, -3.63351343e-03, 0.00000000e+00, -3.30650940e-01, 0.00000000e+00, 0.00000000e+00, -1.20372996e+04, 3.15062560e+04, 0.00000000e+00, -2.30368593e+00, 5.01313367e-01, 2.38698416e-01, 3.38819789e+00, 0.00000000e+00, -4.0738136439, 5.2701056936, 8.0000000000, 11.1501686061, 0.0337760806
          60, -4.17622347e-03, 9.27506235e-03, 0.00000000e+00, 0.00000000e+00, 0.00000000e+00, -3.14013088e-03, 9.27506235e-03, -4.17622347e-03, 0.00000000e+00, -4.50263654e-01, 0.00000000e+00, 0.00000000e+00, 2.81892447e+03, 2.37733009e+04, 0.00000000e+00, -2.66276801e+00, 1.82200590e-01, -1.67473971e-01, 3.02566916e+00, 0.00000000e+00, -4.3582100772, 5.0961511010, 9.0000000000, 16.4614728169, 0.0401422143
          70, -4.33117188e-03, 7.46010384e-03, 0.00000000e+00, 0.00000000e+00, 0.00000000e+00, -3.11993570e-03, 7.46010384e-03, -4.33117188e-03, 0.00000000e+00, -5.80577962e-01, 0.00000000e+00, 0.00000000e+00, 9.64918127e+03, 1.83794216e+04, 0.00000000e+00, -3.14026930e+00, -1.12510555e-01, -8.61494763e-01, 2.58339386e+00, 0.00000000e+00, -5.0019188979, 5.1256037993, 13.0000000000, 28.7620156095, 0.0473392487
          80, -3.17914496e-03, 5.82329500e-03, 0.00000000e+00, 0.00000000e+00, 0.00000000e+00, -2.42144029e-03, 5.82329500e-03, -3.17914496e-03, 0.00000000e+00, -5.45935757e-01, 0.00000000e+00, 0.00000000e+00, 1.02038505e+04, 1.56329379e+04, 0.00000000e+00, -3.35319765e+00, -2.56045198e-01, -1.49587043e+00, 2.39602693e+00, 0.00000000e+00, -5.1216037400, 4.9227735759, 15.0000000000, 37.8682790747, 0.0547150493
          90, -2.39544148e-03, 4.67034157e-03, 0.00000000e+00, 0.00000000e+00, 0.00000000e+00, -1.79851382e-03, 4.67034157e-03, -2.39544148e-03, 0.00000000e+00, -5.12904988e-01, 0.00000000e+00, 0.00000000e+00, 1.25566655e+04, 1.51040254e+04, 0.00000000e+00, -3.48980171e+00, -3.86153558e-01, -1.67931037e+00, 2.25851538e+00, 0.00000000e+00, -4.9008552973, 4.6267799102, 16.0000000000, 44.3244417908, 0.0620376309
         100, -1.87107277e-03, 3.83051992e-03, 0.00000000e+00, 0.00000000e+00, 0.00000000e+00, -1.39446555e-03, 3.83051992e-03, -1.87107277e-03, 0.00000000e+00, -4.88464440e-01, 0.00000000e+00, 0.00000000e+00, 1.33933071e+04, 1.58511282e+04, 0.00000000e+00, -3.60344219e+00, -4.93975229e-01, -1.94152455e+00, 2.14680102e+00, 0.00000000e+00, -4.3719919309, 4.4927609248, 17.0000000000, 50.6312491722, 0.0691728830
         110, -1.51707721e-03, 3.19999318e-03, 0.00000000e+00, 0.00000000e+00, 0.00000000e+00, -1.11866958e-03, 3.19999318e-03, -1.51707721e-03, 0.00000000e+00, -4.74087639e-01, 0.00000000e+00, 0.00000000e+00, 1.34222939e+04, 1.67838603e+04, 0.00000000e+00, -3.70182609e+00, -5.89803279e-01, -2.14856665e+00, 2.04898923e+00, 0.00000000e+00, -3.5754514776, 4.3302977935, 17.0000000000, 56.8354914418, 0.0762877663
         120, -1.26488584e-03, 2.71438353e-03, 0.00000000e+00, 0.00000000e+00, 0.00000000e+00, -9.20403686e-04, 2.71438353e-03, -1.26488584e-03, 0.00000000e+00, -4.65993779e-01, 0.00000000e+00, 0.00000000e+00, 1.29679732e+04, 1.73395294e+04, 0.00000000e+00, -3.78883817e+00, -6.75554460e-01, -2.30757680e+00, 1.96211241e+00, 0.00000000e+00, -2.6385860710, 4.1964076725, 18.0000000000, 62.8613702273, 0.0835750977
         130, -1.07844082e-03, 2.33241069e-03, 0.00000000e+00, 0.00000000e+00, 0.00000000e+00, -7.72010586e-04, 2.33241069e-03, -1.07844082e-03, 0.00000000e+00, -4.62371752e-01, 0.00000000e+00, 0.00000000e+00, 1.22758288e+04, 1.75339192e+04, 0.00000000e+00, -3.86581938e+00, -7.52658606e-01, -2.43990295e+00, 1.88510496e+00, 0.00000000e+00, -1.5850914848, 4.0752369808, 19.0000000000, 68.7860447706, 0.0909038822
         140, -9.46841672e-04, 2.02768332e-03, 0.00000000e+00, 0.00000000e+00, 0.00000000e+00, -6.64761291e-04, 2.02768332e-03, -9.46841672e-04, 0.00000000e+00, -4.66957370e-01, 0.00000000e+00, 0.00000000e+00, 1.15153634e+04, 1.75942456e+04, 0.00000000e+00, -3.92807121e+00, -8.18565606e-01, -2.60439474e+00, 1.82185004e+00, 0.00000000e+00, -0.4521701961, 4.0164722606, 19.0000000000, 74.1124887883, 0.0982565165
         150, -9.72531894e-04, 1.80019303e-03, 0.00000000e+00, 0.00000000e+00, 0.00000000e+00, -6.75326339e-04, 1.80019303e-03, -9.72531894e-04, 0.00000000e+00, -5.40237563e-01, 0.00000000e+00, 0.00000000e+00, 1.11384048e+04, 1.76157845e+04, 0.00000000e+00, -3.86320389e+00, -7.72049220e-01, -2.18034885e+00, 1.88299450e+00, 0.00000000e+00, 0.4868952836, 4.1222223057, 18.0000000000, 62.7801587003, 0.1052737157
         160, -1.20804944e-03, 1.69757782e-03, 0.00000000e+00, 0.00000000e+00, 0.00000000e+00, -8.43535336e-04, 1.69757782e-03, -1.20804944e-03, 0.00000000e+00, -7.11631256e-01, 0.00000000e+00, 0.00000000e+00, 1.12951570e+04, 1.76253702e+04, 0.00000000e+00, -3.72489177e+00, -6.47464629e-01, -2.06364735e+00, 2.01733707e+00, 0.00000000e+00, 0.5846104380, 3.6933164711, 14.0000000000, 37.0612564874, 0.1119170467
         170, -1.40485366e-03, 1.66474514e-03, 0.00000000e+00, 0.00000000e+00, 0.00000000e+00, -9.82165656e-04, 1.66474514e-03, -1.40485366e-03, 0.00000000e+00, -8.43885126e-01, 0.00000000e+00, 0.00000000e+00, 1.08338461e+04, 1.76352585e+04, 0.00000000e+00, -3.67434268e+00, -5.98251824e-01, -2.06478486e+00, 2.06442156e+00, 0.00000000e+00, 0.5438861731, 3.6728932318, 12.0000000000, 30.7657964673, 0.1181917985
         180, -1.56990388e-03, 1.69244969e-03, 0.00000000e+00, 0.00000000e+00, 0.00000000e+00, -1.09640934e-03, 1.69244969e-03, -1.56990388e-03, 0.00000000e+00, -9.27592643e-01, 0.00000000e+00, 0.00000000e+00, 1.02033809e+04, 1.76365486e+04, 0.00000000e+00, -3.64392593e+00, -5.68116040e-01, -2.10156379e+00, 2.09283798e+00, 0.00000000e+00, 0.4920422439, 3.6559736378, 11.0000000000, 27.7568741308, 0.1243123968
         190, -1.69738007e-03, 1.76717299e-03, 0.00000000e+00, 0.00000000e+00, 0.00000000e+00, -1.18187529e-03, 1.76717299e-03, -1.69738007e-03, 0.00000000e+00, -9.60505892e-01, 0.00000000e+00, 0.00000000e+00, 9.70531009e+03, 1.76455325e+04, 0.00000000e+00, -3.62989045e+00, -5.53608299e-01, -2.15339933e+00, 2.10436207e+00, 0.00000000e+00, 0.4195103763, 3.6449029178, 11.0000000000, 26.2670915186, 0.1303187490
         200, -1.78727678e-03, 1.86772201e-03, 0.00000000e+00, 0.00000000e+00, 0.00000000e+00, -1.23799036e-03, 1.86772201e-03, -1.78727678e-03, 0.00000000e+00, -9.56928692e-01, 0.00000000e+00, 0.00000000e+00, 9.40180037e+03, 1.76976835e+04, 0.00000000e+00, -3.62258763e+00, -5.48696353e-01, -2.15816009e+00, 2.10969828e+00, 0.00000000e+00, 0.3340697318, 3.6414673185, 10.0000000000, 25.4977346782, 0.1361056169
         210, -1.84916843e-03, 1.97495934e-03, 0.00000000e+00, 0.00000000e+00, 0.00000000e+00, -1.27158020e-03, 1.97495934e-03, -1.84916843e-03, 0.00000000e+00, -9.36307090e-01, 0.00000000e+00, 0.00000000e+00, 9.28683002e+03, 1.77753503e+04, 0.00000000e+00, -3.62454121e+00, -5.52532199e-01, -2.21999848e+00, 2.10564616e+00, 0.00000000e+00, 0.2454701484, 3.6112421795, 10.0000000000, 25.4638693364, 0.1418856819
         220, -1.89103034e-03, 2.07604441e-03, 0.00000000e+00, 0.00000000e+00, 0.00000000e+00, -1.28839300e-03, 2.07604441e-03, -1.89103034e-03, 0.00000000e+00, -9.10881450e-01, 0.00000000e+00, 0.00000000e+00, 9.28883109e+03, 1.78466865e+04, 0.00000000e+00, -3.63213328e+00, -5.62332167e-01, -2.21495180e+00, 2.09680201e+00, 0.00000000e+00, 0.1528060642, 3.5756745788, 10.0000000000, 25.5653768382, 0.1476290981
         230, -1.91725323e-03, 2.16503116e-03, 0.00000000e+00, 0.00000000e+00, 0.00000000e+00, -1.29124367e-03, 2.16503116e-03, -1.91725323e-03, 0.00000000e+00, -8.85554568e-01, 0.00000000e+00, 0.00000000e+00, 9.33301991e+03, 1.78969241e+04, 0.00000000e+00, -3.64505440e+00, -5.77005175e-01, -2.25483383e+00, 2.08292910e+00, 0.00000000e+00, 0.0703344835, 3.5080174599, 11.0000000000, 25.9718061834, 0.1535536329
         240, -1.93276777e-03, 2.23965383e-03, 0.00000000e+00, 0.00000000e+00, 0.00000000e+00, -1.28351509e-03, 2.23965383e-03, -1.93276777e-03, 0.00000000e+00, -8.62976120e-01, 0.00000000e+00, 0.00000000e+00, 9.38115891e+03, 1.79259069e+04, 0.00000000e+00, -3.66492527e+00, -5.97110561e-01, -2.25347135e+00, 2.06242829e+00, 0.00000000e+00, 0.0186845929, 3.4333212325, 11.0000000000, 26.5276806204, 0.1594427466
         250, -1.94130530e-03, 2.29964274e-03, 0.00000000e+00, 0.00000000e+00, 0.00000000e+00, -1.26779129e-03, 2.29964274e-03, -1.94130530e-03, 0.00000000e+00, -8.44176908e-01, 0.00000000e+00, 0.00000000e+00, 9.41615114e+03, 1.79344185e+04, 0.00000000e+00, -3.68642979e+00, -6.19381672e-01, -2.27705230e+00, 2.04066403e+00, 0.00000000e+00, 0.0069225490, 3.3398301054, 12.0000000000, 27.1813134603, 0.1655155659
         260, -1.94594366e-03, 2.34554660e-03, 0.00000000e+00, 0.00000000e+00, 0.00000000e+00, -1.24618809e-03, 2.34554660e-03, -1.94594366e-03, 0.00000000e+00, -8.29633340e-01, 0.00000000e+00, 0.00000000e+00, 9.43673955e+03, 1.79210553e+04, 0.00000000e+00, -3.71219693e+00, -6.45132470e-01, -2.31004005e+00, 2.01456461e+00, 0.00000000e+00, 0.0208207208, 3.2415078272, 12.0000000000, 28.0085278095, 0.1716235002
         270, -1.94953763e-03, 2.37812720e-03, 0.00000000e+00, 0.00000000e+00, 0.00000000e+00, -1.22092737e-03, 2.37812720e-03, -1.94953763e-03, 0.00000000e+00, -8.19778532e-01, 0.00000000e+00, 0.00000000e+00, 9.45113082e+03, 1.78887246e+04, 0.00000000e+00, -3.74039957e+00, -6.73131236e-01, -2.32302019e+00, 1.98654996e+00, 0.00000000e+00, 0.0382137047, 3.1388172273, 12.0000000000, 28.9012469311, 0.1777058482
         280, -1.95491764e-03, 2.39819613e-03, 0.00000000e+00, 0.00000000e+00, 0.00000000e+00, -1.19442669e-03, 2.39819613e-03, -1.95491764e-03, 0.00000000e+00, -8.15161703e-01, 0.00000000e+00, 0.00000000e+00, 9.46860234e+03, 1.78446471e+04, 0.00000000e+00, -3.77165126e+00, -7.03498773e-01, -2.36641772e+00, 1.95604542e+00, 0.00000000e+00, 0.0427938847, 3.0240718777, 12.0000000000, 29.9687216872, 0.1837931315
         290, -1.96521598e-03, 2.40648493e-03, 0.00000000e+00, 0.00000000e+00, 0.00000000e+00, -1.16991604e-03, 2.40648493e-03, -1.96521598e-03, 0.00000000e+00, -8.16633401e-01, 0.00000000e+00, 0.00000000e+00, 9.49590592e+03, 1.77972231e+04, 0.00000000e+00, -3.80956930e+00, -7.38728235e-01, -2.39794688e+00, 1.91962895e+00, 0.00000000e+00, 0.0310487558, 2.9519658911, 13.0000000000, 31.2649050917, 0.1900612831
         300, -1.98367272e-03, 2.40365577e-03, 0.00000000e+00, 0.00000000e+00, 0.00000000e+00, -1.15143885e-03, 2.40365577e-03, -1.98367272e-03, 0.00000000e+00, -8.25273212e-01, 0.00000000e+00, 0.00000000e+00, 9.53279207e+03, 1.77534346e+04, 0.00000000e+00, -3.85434679e+00, -7.79659854e-01, -2.43782785e+00, 1.87754355e+00, 0.00000000e+00, 0.0038072399, 2.9590065909, 13.0000000000, 32.8808166292, 0.1963461161
         310, -2.01378415e-03, 2.39042731e-03, 0.00000000e+00, 0.00000000e+00, 0.00000000e+00, -1.14436739e-03, 2.39042731e-03, -2.01378415e-03, 0.00000000e+00, -8.42436892e-01, 0.00000000e+00, 0.00000000e+00, 9.56939571e+03, 1.77167566e+04, 0.00000000e+00, -3.91319623e+00, -8.31217578e-01, -2.49268391e+00, 1.82354684e+00, 0.00000000e+00, -0.0373435405, 3.0441640509, 13.0000000000, 35.1449773464, 0.2027904471
         320, -2.05924134e-03, 2.36755437e-03, 0.00000000e+00, 0.00000000e+00, 0.00000000e+00, -1.15583458e-03, 2.36755437e-03, -2.05924134e-03, 0.00000000e+00, -8.69775734e-01, 0.00000000e+00, 0.00000000e+00, 9.58725614e+03, 1.76871815e+04, 0.00000000e+00, -3.99201325e+00, -8.97183778e-01, -2.54910549e+00, 1.75344420e+00, 0.00000000e+00, -0.0922087929, 3.1415438027, 14.0000000000, 38.3569821304, 0.2096354802
         330, -2.12199020e-03, 2.33557867e-03, 0.00000000e+00, 0.00000000e+00, 0.00000000e+00, -1.19199444e-03, 2.33557867e-03, -2.12199020e-03, 0.00000000e+00, -9.08550084e-01, 0.00000000e+00, 0.00000000e+00, 9.55888711e+03, 1.76646166e+04, 0.00000000e+00, -4.09295979e+00, -9.77578634e-01, -2.61443696e+00, 1.66671829e+00, 0.00000000e+00, -0.1612120703, 3.2006329244, 15.0000000000, 43.0012027667, 0.2164966822
         340, -2.19600687e-03, 2.29515065e-03, 0.00000000e+00, 0.00000000e+00, 0.00000000e+00, -1.24718424e-03, 2.29515065e-03, -2.19600687e-03, 0.00000000e+00, -9.56802935e-01, 0.00000000e+00, 0.00000000e+00, 9.44058922e+03, 1.76485499e+04, 0.00000000e+00, -4.20052536e+00, -1.05995589e+00, -2.69968217e+00, 1.57633429e+00, 0.00000000e+00, -0.2437863064, 3.1904362388, 15.0000000000, 48.6875885721, 0.2233352979
         350, -2.26999749e-03, 2.24810648e-03, 0.00000000e+00, 0.00000000e+00, 0.00000000e+00, -1.30554528e-03, 2.24810648e-03, -2.26999749e-03, 0.00000000e+00, -1.00973753e+00, 0.00000000e+00, 0.00000000e+00, 9.21009417e+03, 1.76375294e+04, 0.00000000e+00, -4.29854114e+00, -1.13469107e+00, -2.77628001e+00, 1.49424329e+00, 0.00000000e+00, -0.3368480335, 3.2325750769, 16.0000000000, 54.5714110589, 0.2303679307
         360, -2.33949310e-03, 2.19735427e-03, 0.00000000e+00, 0.00000000e+00, 0.00000000e+00, -1.35984813e-03, 2.19735427e-03, -2.33949310e-03, 0.00000000e+00, -1.06468636e+00, 0.00000000e+00, 0.00000000e+00, 8.88295334e+03, 1.76306437e+04, 0.00000000e+00, -4.38805028e+00, -1.20385975e+00, -2.83844332e+00, 1.41913104e+00, 0.00000000e+00, -0.4262144016, 3.2921468818, 18.0000000000, 60.5385469760, 0.2379149636
         370, -2.40542814e-03, 2.14601949e-03, 0.00000000e+00, 0.00000000e+00, 0.00000000e+00, -1.41067452e-03, 2.14601949e-03, -2.40542814e-03, 0.00000000e+00, -1.12087898e+00, 0.00000000e+00, 0.00000000e+00, 8.47416834e+03, 1.76266878e+04, 0.00000000e+00, -4.47230198e+00, -1.27035328e+00, -2.89569592e+00, 1.34853745e+00, 0.00000000e+00, -0.4921928730, 3.3403778796, 19.0000000000, 66.7417070797, 0.2460243146
         380, -2.46968498e-03, 2.09699742e-03, 0.00000000e+00, 0.00000000e+00, 0.00000000e+00, -1.46031746e-03, 2.09699742e-03, -2.46968498e-03, 0.00000000e+00, -1.17772438e+00, 0.00000000e+00, 0.00000000e+00, 7.99006610e+03, 1.76254973e+04, 0.00000000e+00, -4.55303692e+00, -1.33575913e+00, -2.94638456e+00, 1.28114106e+00, 0.00000000e+00, -0.5262054987, 3.3738027728, 20.0000000000, 73.2740042481, 0.2539564331
         390, -2.53339403e-03, 2.05264768e-03, 0.00000000e+00, 0.00000000e+00, 0.00000000e+00, -1.51032347e-03, 2.05264768e-03, -2.53339403e-03, 0.00000000e+00, -1.23420792e+00, 0.00000000e+00, 0.00000000e+00, 7.43572362e+03, 1.76267515e+04, 0.00000000e+00, -4.63096152e+00, -1.40069337e+00, -2.99197702e+00, 1.21619228e+00, 0.00000000e+00, -0.5438201387, 3.3941672943, 20.0000000000, 80.1719876330, 0.2616067489
         400, -2.59674397e-03, 2.01442793e-03, 0.00000000e+00, 0.00000000e+00, 0.00000000e+00, -1.56107441e-03, 2.01442793e-03, -2.59674397e-03, 0.00000000e+00, -1.28907266e+00, 0.00000000e+00, 0.00000000e+00, 6.82065645e+03, 1.76303981e+04, 0.00000000e+00, -4.70707312e+00, -1.46569240e+00, -3.03666583e+00, 1.15259377e+00, 0.00000000e+00, -0.5633066210, 3.4056190095, 21.0000000000, 87.5213040883, 0.2691781163
         410, -2.65945495e-03, 1.98268827e-03, 0.00000000e+00, 0.00000000e+00, 0.00000000e+00, -1.61240105e-03, 1.98268827e-03, -2.65945495e-03, 0.00000000e+00, -1.34133791e+00, 0.00000000e+00, 0.00000000e+00, 6.15914491e+03, 1.76352399e+04, 0.00000000e+00, -4.78294275e+00, -1.53178762e+00, -3.07731479e+00, 1.08877011e+00, 0.00000000e+00, -0.5930157591, 3.4116921045, 21.0000000000, 95.4989151388, 0.2767569661
         420, -2.72032909e-03, 1.95712063e-03, 0.00000000e+00, 0.00000000e+00, 0.00000000e+00, -1.66326382e-03, 1.95712063e-03, -2.72032909e-03, 0.00000000e+00, -1.38996495e+00, 0.00000000e+00, 0.00000000e+00, 5.47664837e+03, 1.76403854e+04, 0.00000000e+00, -4.86088569e+00, -1.60028636e+00, -3.12478716e+00, 1.02274285e+00, 0.00000000e+00, -0.6362956414, 3.3511150318, 21.0000000000, 99.9000000000, 0.2843959133
         430, -2.77542342e-03, 1.93763154e-03, 0.00000000e+00, 0.00000000e+00, 0.00000000e+00, -1.71023520e-03, 1.93763154e-03, -2.77542342e-03, 0.00000000e+00, -1.43237936e+00, 0.00000000e+00, 0.00000000e+00, 4.83333289e+03, 1.76447438e+04, 0.00000000e+00, -4.93977232e+00, -1.66921077e+00, -3.18260088e+00, 9.55931214e-01, 0.00000000e+00, -0.6892123439, 3.3184623297, 21.0000000000, 99.9000000000, 0.2920364300
         440, -2.82457149e-03, 1.92245436e-03, 0.00000000e+00, 0.00000000e+00, 0.00000000e+00, -1.75297520e-03, 1.92245436e-03, -2.82457149e-03, 0.00000000e+00, -1.46925282e+00, 0.00000000e+00, 0.00000000e+00, 4.23478423e+03, 1.76476620e+04, 0.00000000e+00, -5.02029925e+00, -1.73890803e+00, -3.24690912e+00, 8.88102929e-01, 0.00000000e+00, -0.7473132985, 3.2848203627, 21.0000000000, 99.9000000000, 0.2996611834
         450, -2.86813087e-03, 1.91023898e-03, 0.00000000e+00, 0.00000000e+00, 0.00000000e+00, -1.79158245e-03, 1.91023898e-03, -2.86813087e-03, 0.00000000e+00, -1.50145134e+00, 0.00000000e+00, 0.00000000e+00, 3.68105096e+03, 1.76495938e+04, 0.00000000e+00, -5.10269804e+00, -1.80979069e+00, -3.30866966e+00, 8.19090325e-01, 0.00000000e+00, -0.8088515560, 3.2519184588, 21.0000000000, 99.9000000000, 0.3073142807
         460, -2.90652321e-03, 1.90015877e-03, 0.00000000e+00, 0.00000000e+00, 0.00000000e+00, -1.82623438e-03, 1.90015877e-03, -2.90652321e-03, 0.00000000e+00, -1.52962124e+00, 0.00000000e+00, 0.00000000e+00, 3.17111505e+03, 1.76510028e+04, 0.00000000e+00, -5.18816216e+00, -1.88219603e+00, -3.37579965e+00, 7.48316240e-01, 0.00000000e+00, -0.8723983138, 3.2192451059, 21.0000000000, 99.9000000000, 0.3149024487
         470, -2.94020453e-03, 1.89170752e-03, 0.00000000e+00, 0.00000000e+00, 0.00000000e+00, -1.85718313e-03, 1.89170752e-03, -2.94020453e-03, 0.00000000e+00, -1.55425957e+00, 0.00000000e+00, 0.00000000e+00, 2.70322871e+03, 1.76520286e+04, 0.00000000e+00, -5.27578457e+00, -1.95584435e+00, -3.44235236e+00, 6.76393648e-01, 0.00000000e+00, -0.9370641168, 3.1844966795, 20.0000000000, 99.9000000000, 0.3223282655
         480, -2.96958983e-03, 1.88456636e-03, 0.00000000e+00, 0.00000000e+00, 0.00000000e+00, -1.88461538e-03, 1.88456636e-03, -2.96958983e-03, 0.00000000e+00, -1.57574172e+00, 0.00000000e+00, 0.00000000e+00, 2.27521908e+03, 1.76526517e+04, 0.00000000e+00, -5.36514286e+00, -2.03018972e+00, -3.51364708e+00, 6.03693638e-01, 0.00000000e+00, -1.0027861778, 3.1505909713, 20.0000000000, 99.9000000000, 0.3297251503
         490, -2.99516190e-03, 1.87851678e-03, 0.00000000e+00, 0.00000000e+00, 0.00000000e+00, -1.90885264e-03, 1.87851678e-03, -2.99516190e-03, 0.00000000e+00, -1.59442914e+00, 0.00000000e+00, 0.00000000e+00, 1.88493446e+03, 1.76533654e+04, 0.00000000e+00, -5.45519076e+00, -2.10497415e+00, -3.58253114e+00, 5.30627416e-01, 0.00000000e+00, -1.0685192966, 3.1152780694, 20.0000000000, 99.9000000000, 0.3371779799
         500, -3.01736156e-03, 1.87339093e-03, 0.00000000e+00, 0.00000000e+00, 0.00000000e+00, -1.93018882e-03, 1.87339093e-03, -3.01736156e-03, 0.00000000e+00, -1.61064171e+00, 0.00000000e+00, 0.00000000e+00, 1.53004962e+03, 1.76539631e+04, 0.00000000e+00, -5.54562270e+00, -2.18005784e+00, -3.65671477e+00, 4.57370013e-01, 0.00000000e+00, -1.1333575676, 3.0773892613, 20.0000000000, 99.9000000000, 0.3445711811
         510, -3.03655828e-03, 1.86905096e-03, 0.00000000e+00, 0.00000000e+00, 0.00000000e+00, -1.94884605e-03, 1.86905096e-03, -3.03655828e-03, 0.00000000e+00, -1.62465248e+00, 0.00000000e+00, 0.00000000e+00, 1.20822486e+03, 1.76547521e+04, 0.00000000e+00, -5.63366360e+00, -2.25461128e+00, -3.72846078e+00, 3.84808930e-01, 0.00000000e+00, -1.1992061632, 3.0417771870, 20.0000000000, 99.9000000000, 0.3519136151
         520, -3.05319199e-03, 1.86537688e-03, 0.00000000e+00, 0.00000000e+00, 0.00000000e+00, -1.96521448e-03, 1.86537688e-03, -3.05319199e-03, 0.00000000e+00, -1.63676950e+00, 0.00000000e+00, 0.00000000e+00, 9.17337229e+02, 1.76554557e+04, 0.00000000e+00, -5.72029940e+00, -2.32903157e+00, -3.80097982e+00, 3.12411119e-01, 0.00000000e+00, -1.2653424766, 3.0026514431, 20.0000000000, 99.9000000000, 0.3592706482
         530, -3.06758887e-03, 1.86226579e-03, 0.00000000e+00, 0.00000000e+00, 0.00000000e+00, -1.97954363e-03, 1.86226579e-03, -3.06758887e-03, 0.00000000e+00, -1.64723473e+00, 0.00000000e+00, 0.00000000e+00, 6.55001059e+02, 1.76557687e+04, 0.00000000e+00, -5.80368917e+00, -2.40298581e+00, -3.87130751e+00, 2.40648309e-01, 0.00000000e+00, -1.3314413465, 2.9630916241, 19.0000000000, 99.9000000000, 0.3665220141
         540, -3.08004846e-03, 1.85963070e-03, 0.00000000e+00, 0.00000000e+00, 0.00000000e+00, -1.99207581e-03, 1.85963070e-03, -3.08004846e-03, 0.00000000e+00, -1.65626889e+00, 0.00000000e+00, 0.00000000e+00, 4.18990456e+02, 1.76558680e+04, 0.00000000e+00, -5.88357240e+00, -2.47653239e+00, -3.94059546e+00, 1.69365467e-01, 0.00000000e+00, -1.3971902700, 2.9223880489, 19.0000000000, 99.9000000000, 0.3737747312
         550, -3.09083482e-03, 1.85739642e-03, 0.00000000e+00, 0.00000000e+00, 0.00000000e+00, -2.00303499e-03, 1.85739642e-03, -3.09083482e-03, 0.00000000e+00, -1.66406847e+00, 0.00000000e+00, 0.00000000e+00, 2.07164808e+02, 1.76558861e+04, 0.00000000e+00, -5.95947398e+00, -2.54971258e+00, -4.00956898e+00, 9.85069619e-02, 0.00000000e+00, -1.4624731647, 2.8805739304, 19.0000000000, 99.9000000000, 0.3810096145
         560, -3.10018623e-03, 1.85549900e-03, 0.00000000e+00, 0.00000000e+00, 0.00000000e+00, -2.01263601e-03, 1.85549900e-03, -3.10018623e-03, 0.00000000e+00, -1.67080997e+00, 0.00000000e+00, 0.00000000e+00, 1.74889317e+01, 1.76558859e+04, 0.00000000e+00, -6.03088943e+00, -2.62243790e+00, -4.07810254e+00, 2.81292077e-02, 0.00000000e+00, -1.5272639503, 2.8379201475, 18.0000000000, 99.9000000000, 0.3883264979
         570, -3.10829795e-03, 1.85388482e-03, 0.00000000e+00, 0.00000000e+00, 0.00000000e+00, -2.02104917e-03, 1.85388482e-03, -3.10829795e-03, 0.00000000e+00, -1.67664028e+00, 0.00000000e+00, 0.00000000e+00, -1.52056111e+02, 1.76558856e+04, 0.00000000e+00, -6.09780874e+00, -2.69493786e+00, -4.14606594e+00, -4.19328485e-02, 0.00000000e+00, -1.5920604018, 2.7936849340, 18.0000000000, 99.9000000000, 0.3954064171
         580, -3.11532113e-03, 1.85250940e-03, 0.00000000e+00, 0.00000000e+00, 0.00000000e+00, -2.02839459e-03, 1.85250940e-03, -3.11532113e-03, 0.00000000e+00, -1.68167628e+00, 0.00000000e+00, 0.00000000e+00, -3.03343988e+02, 1.76558885e+04, 0.00000000e+00, -6.16044220e+00, -2.76698250e+00, -4.21367155e+00, -1.11524311e-01, 0.00000000e+00, -1.6567173689, 2.7491163935, 18.0000000000, 99.9000000000, 0.4025823315
         590, -3.12140631e-03, 1.85133658e-03, 0.00000000e+00, 0.00000000e+00, 0.00000000e+00, -2.03481303e-03, 1.85133658e-03, -3.12140631e-03, 0.00000000e+00, -1.68602854e+00, 0.00000000e+00, 0.00000000e+00, -4.38071916e+02, 1.76558936e+04, 0.00000000e+00, -6.21931688e+00, -2.83862077e+00, -4.28188720e+00, -1.80738675e-01, 0.00000000e+00, -1.7211780857, 2.7034214779, 17.0000000000, 99.9000000000, 0.4096603314
         600, -3.12668240e-03, 1.85033572e-03, 0.00000000e+00, 0.00000000e+00, 0.00000000e+00, -2.04042535e-03, 1.85033572e-03, -3.12668240e-03, 0.00000000e+00, -1.68979195e+00, 0.00000000e+00, 0.00000000e+00, -5.57835683e+02, 1.76559009e+04, 0.00000000e+00, -6.27495122e+00, -2.90986748e+00, -4.34909919e+00, -2.49579459e-01, 0.00000000e+00, -1.7854650593, 2.6570302531, 17.0000000000, 99.9000000000, 0.4165944815
         610, -3.13125835e-03, 1.84948077e-03, 0.00000000e+00, 0.00000000e+00, 0.00000000e+00, -2.04533381e-03, 1.84948077e-03, -3.13125835e-03, 0.00000000e+00, -1.69304726e+00, 0.00000000e+00, 0.00000000e+00, -6.64124717e+02, 1.76559083e+04, 0.00000000e+00, -6.32812774e+00, -2.98068429e+00, -4.41580299e+00, -3.18009957e-01, 0.00000000e+00, -1.8495943371, 2.6096840595, 17.0000000000, 99.9000000000, 0.4234606822
         620, -3.13522739e-03, 1.84874974e-03, 0.00000000e+00, 0.00000000e+00, 0.00000000e+00, -2.04962570e-03, 1.84874974e-03, -3.13522739e-03, 0.00000000e+00, -1.69586360e+00, 0.00000000e+00, 0.00000000e+00, -7.58305688e+02, 1.76559127e+04, 0.00000000e+00, -6.37945299e+00, -3.05108584e+00, -4.48210080e+00, -3.86076917e-01, 0.00000000e+00, -1.9134773754, 2.5616352812, 17.0000000000, 99.9000000000, 0.4302033981
         630, -3.13867113e-03, 1.84812408e-03, 0.00000000e+00, 0.00000000e+00, 0.00000000e+00, -2.05337920e-03, 1.84812408e-03, -3.13867113e-03, 0.00000000e+00, -1.69830108e+00, 0.00000000e+00, 0.00000000e+00, -8.41630230e+02, 1.76559144e+04, 0.00000000e+00, -6.42957505e+00, -3.12108987e+00, -4.54788708e+00, -4.53815053e-01, 0.00000000e+00, -1.9771079785, 2.5127791771, 17.0000000000, 99.9000000000, 0.4369824171
         640, -3.14165957e-03, 1.84758815e-03, 0.00000000e+00, 0.00000000e+00, 0.00000000e+00, -2.05666189e-03, 1.84758815e-03, -3.14165957e-03, 0.00000000e+00, -1.70041119e+00, 0.00000000e+00, 0.00000000e+00, -9.15241375e+02, 1.76559142e+04, 0.00000000e+00, -6.47900226e+00, -3.19069275e+00, -4.61364375e+00, -5.21229675e-01, 0.00000000e+00, -2.0405241443, 2.4632018756, 16.0000000000, 99.9000000000, 0.4437207301
         650, -3.14425322e-03, 1.84712872e-03, 0.00000000e+00, 0.00000000e+00, 0.00000000e+00, -2.05953267e-03, 1.84712872e-03, -3.14425322e-03, 0.00000000e+00, -1.70223828e+00, 0.00000000e+00, 0.00000000e+00, -9.80179282e+02, 1.76559128e+04, 0.00000000e+00, -6.52814339e+00, -3.25987585e+00, -4.67929017e+00, -5.88317535e-01, 0.00000000e+00, -2.1037895787, 2.4128919409, 16.0000000000, 99.9000000000, 0.4503248970
         660, -3.14650433e-03, 1.84673461e-03, 0.00000000e+00, 0.00000000e+00, 0.00000000e+00, -2.06204295e-03, 1.84673461e-03, -3.14650433e-03, 0.00000000e+00, -1.70382052e+00, 0.00000000e+00, 0.00000000e+00, -1.03738701e+03, 1.76559106e+04, 0.00000000e+00, -6.57731153e+00, -3.32863225e+00, -4.74463231e+00, -6.55079974e-01, 0.00000000e+00, -2.1669040946, 2.3620015280, 16.0000000000, 99.9000000000, 0.4569580317
         670, -3.14845853e-03, 1.84639636e-03, 0.00000000e+00, 0.00000000e+00, 0.00000000e+00, -2.06423827e-03, 1.84639636e-03, -3.14845853e-03, 0.00000000e+00, -1.70519104e+00, 0.00000000e+00, 0.00000000e+00, -1.08771649e+03, 1.76559079e+04, 0.00000000e+00, -6.62677758e+00, -3.39700489e+00, -4.80976952e+00, -7.21569179e-01, 0.00000000e+00, -2.2298261866, 2.3103517073, 16.0000000000, 99.9000000000, 0.4635646979
         680, -3.15015491e-03, 1.84610593e-03, 0.00000000e+00, 0.00000000e+00, 0.00000000e+00, -2.06615778e-03, 1.84610593e-03, -3.15015491e-03, 0.00000000e+00, -1.70637820e+00, 0.00000000e+00, 0.00000000e+00, -1.13193701e+03, 1.76559048e+04, 0.00000000e+00, -6.67671554e+00, -3.46497826e+00, -4.87475761e+00, -7.87781347e-01, 0.00000000e+00, -2.2925986239, 2.2580846692, 16.0000000000, 99.9000000000, 0.4701629162
         690, -3.15162743e-03, 1.84585644e-03, 0.00000000e+00, 0.00000000e+00, 0.00000000e+00, -2.06783580e-03, 1.84585644e-03, -3.15162743e-03, 0.00000000e+00, -1.70740658e+00, 0.00000000e+00, 0.00000000e+00, -1.17074022e+03, 1.76559013e+04, 0.00000000e+00, -6.72721711e+00, -3.53256465e+00, -4.93957174e+00, -8.53727231e-01, 0.00000000e+00, -2.3552369386, 2.2051829810, 16.0000000000, 99.9000000000, 0.4767739137
         700, -3.15290556e-03, 1.84564205e-03, 0.00000000e+00, 0.00000000e+00, 0.00000000e+00, -2.06930248e-03, 1.84564205e-03, -3.15290556e-03, 0.00000000e+00, -1.70829743e+00, 0.00000000e+00, 0.00000000e+00, -1.20474707e+03, 1.76558975e+04, 0.00000000e+00, -6.77841959e+00, -3.59978136e+00, -5.00432070e+00, -9.19439725e-01, 0.00000000e+00, -2.4177552433, 2.1516648701, 16.0000000000, 99.9000000000, 0.4834338824