TITLE = "SU2 Simulation"
VARIABLES = "Iteration","CL","CD","CSF","CMx","CMy","CMz","CFx","CFy","CFz","CL/CD","AoA","Custom_ObjFunc","HeatFlux_Total","HeatFlux_Maximum","Temperature_Total","Res_Flow[0]","Res_Flow[1]","Res_Flow[2]","Res_Flow[3]","Res_Flow[4]"," Res_Turb[0]"," Res_Turb[1]"," Res_Turb[2]"," Res_Turb[3]","Linear_Solver_Iterations","CFL_Number","Time(min)"
ZONE T= "Convergence history"
           0, -4.00000173e-01, 2.01249572e-01, 0.00000000e+00, 0.00000000e+00, 0.00000000e+00, -3.00000369e-01, 2.01249572e-01, -4.00000173e-01, 0.00000000e+00, -1.98758273e+00, 0.00000000e+00, 0.00000000e+00, -8.94492017e+04, 7.91361278e+04, 0.00000000e+00, -2.43269021e+00, 5.30310315e-02, -1.33953325e+01, 3.01910998e+00, 0.00000000e+00, 2.5338178762, 7.0493462093, 2.2182006129, 8.2709016816, 7.0000000000, 10.0000000000, 0.0017070015
          10, -2.48612630e-02, 7.92746278e-02, 0.00000000e+00, 0.00000000e+00, 0.00000000e+00, -4.50191589e-02, 7.92746278e-02, -2.48612630e-02, 0.00000000e+00, -3.13609331e-01, 0.00000000e+00, 0.00000000e+00, -7.32589718e+03, 6.47511161e+03, 0.00000000e+00, -3.30415658e+00, -4.82831593e-01, -1.03876170e+00, 2.18091899e+00, 0.00000000e+00, 0.5675787898, 6.8771364029, 0.7953149826, 6.7804230595, 10.0000000000, 30.4029342601, 0.0087793668
          20, -2.32731135e-01, 4.91566376e-02, 0.00000000e+00, 0.00000000e+00, 0.00000000e+00, -1.77296973e-01, 4.91566376e-02, -2.32731135e-01, 0.00000000e+00, -4.73448035e+00, 0.00000000e+00, 0.00000000e+00, -3.03377898e+03, 2.68481870e+03, 0.00000000e+00, -3.57680141e+00, -8.44348812e-01, -1.17391289e+00, 1.87870905e+00, 0.00000000e+00, 0.2491811488, 6.5084609239, -0.0198008409, 5.7525614857, 10.0000000000, 42.4586021443, 0.0158489029
          30, -1.66344386e-01, 3.64165537e-02, 0.00000000e+00, 0.00000000e+00, 0.00000000e+00, -1.19130664e-01, 3.64165537e-02, -1.66344386e-01, 0.00000000e+00, -4.56782340e+00, 0.00000000e+00, 0.00000000e+00, -1.56170268e+03, 1.38324197e+03, 0.00000000e+00, -3.80254795e+00, -1.02783258e+00, -1.60525683e+00, 1.68115538e+00, 0.00000000e+00, -0.0168945227, 6.3523723135, -0.3286879673, 5.2132511045, 10.0000000000, 52.0225966805, 0.0228844166
          40, -1.40961689e-01, 2.84407908e-02, 0.00000000e+00, 0.00000000e+00, 0.00000000e+00, -1.20862153e-01, 2.84407908e-02, -1.40961689e-01, 0.00000000e+00, -4.95632100e+00, 0.00000000e+00, 0.00000000e+00, -8.92439406e+02, 7.92507475e+02, 0.00000000e+00, -4.01575540e+00, -1.20232080e+00, -1.87257058e+00, 1.40974060e+00, 0.00000000e+00, -0.2070556091, 5.9123733353, -0.4461616116, 4.8169209920, 10.0000000000, 58.0367084369, 0.0305431684
          50, -1.64660138e-01, 2.37860750e-02, 0.00000000e+00, 0.00000000e+00, 0.00000000e+00, -1.28526329e-01, 2.37860750e-02, -1.64660138e-01, 0.00000000e+00, -6.92254348e+00, 0.00000000e+00, 0.00000000e+00, -6.14798745e+02, 5.49083664e+02, 0.00000000e+00, -4.23599787e+00, -1.33305795e+00, -2.07737697e+00, 1.21935458e+00, 0.00000000e+00, -0.2962038023, 5.5563541937, -0.4831362081, 4.5782080976, 10.0000000000, 72.3786132546, 0.0383057356
          60, -1.54273559e-01, 1.98360799e-02, 0.00000000e+00, 0.00000000e+00, 0.00000000e+00, -1.26045543e-01, 1.98360799e-02, -1.54273559e-01, 0.00000000e+00, -7.77742174e+00, 0.00000000e+00, 0.00000000e+00, -4.16317123e+02, 3.74864382e+02, 0.00000000e+00, -4.50013920e+00, -1.45110431e+00, -2.28588827e+00, 9.88986782e-01, 0.00000000e+00, -0.3493797450, 5.2397403341, -0.5019707299, 4.3621722740, 10.0000000000, 74.5622102806, 0.0458870848
          70, -1.57394942e-01, 1.70720579e-02, 0.00000000e+00, 0.00000000e+00, 0.00000000e+00, -1.26896839e-01, 1.70720579e-02, -1.57394942e-01, 0.00000000e+00, -9.21944757e+00, 0.00000000e+00, 0.00000000e+00, -3.04219676e+02, 2.91154519e+02, 0.00000000e+00, -4.74516236e+00, -1.54234619e+00, -2.62311481e+00, 7.07194072e-01, 0.00000000e+00, -0.7440258223, 5.0114607101, -1.1088720676, 4.3959847740, 10.0000000000, 99.9000000000, 0.0530206362
          80, -1.55956068e-01, 1.48400178e-02, 0.00000000e+00, 0.00000000e+00, 0.00000000e+00, -1.26426384e-01, 1.48400178e-02, -1.55956068e-01, 0.00000000e+00, -1.05091564e+01, 0.00000000e+00, 0.00000000e+00, -2.26249120e+02, 2.34720151e+02, 0.00000000e+00, -4.89702571e+00, -1.61482561e+00, -2.91430873e+00, 5.90620376e-01, 0.00000000e+00, -0.8460534423, 4.8072025771, -1.2333868540, 4.0161591601, 10.0000000000, 99.9000000000, 0.0603513519
          90, -1.55981858e-01, 1.31735113e-02, 0.00000000e+00, 0.00000000e+00, 0.00000000e+00, -1.26530157e-01, 1.31735113e-02, -1.55981858e-01, 0.00000000e+00, -1.18405682e+01, 0.00000000e+00, 0.00000000e+00, -1.76551231e+02, 2.06892973e+02, 0.00000000e+00, -5.06649464e+00, -1.68093825e+00, -3.13468455e+00, 4.01161516e-01, 0.00000000e+00, -0.9137472627, 4.6408071866, -1.3699646559, 3.8948156923, 10.0000000000, 99.9000000000, 0.0680355668
         100, -1.55840337e-01, 1.18771910e-02, 0.00000000e+00, 0.00000000e+00, 0.00000000e+00, -1.26520513e-01, 1.18771910e-02, -1.55840337e-01, 0.00000000e+00, -1.31209759e+01, 0.00000000e+00, 0.00000000e+00, -1.42530611e+02, 1.90706622e+02, 0.00000000e+00, -5.21359964e+00, -1.73586384e+00, -3.37790418e+00, 2.51430014e-01, 0.00000000e+00, -0.9879521750, 4.4989186087, -1.4646263824, 3.7042013827, 10.0000000000, 99.9000000000, 0.0756840507
         110, -1.55680105e-01, 1.08371847e-02, 0.00000000e+00, 0.00000000e+00, 0.00000000e+00, -1.26485334e-01, 1.08371847e-02, -1.55680105e-01, 0.00000000e+00, -1.43653642e+01, 0.00000000e+00, 0.00000000e+00, -1.18030573e+02, 1.79792349e+02, 0.00000000e+00, -5.32521296e+00, -1.78348213e+00, -3.51738714e+00, 1.37849728e-01, 0.00000000e+00, -1.0409562579, 4.3741157857, -1.5821358478, 3.5102141134, 10.0000000000, 99.9000000000, 0.0824262182
         120, -1.55601320e-01, 9.98229427e-03, 0.00000000e+00, 0.00000000e+00, 0.00000000e+00, -1.26479587e-01, 9.98229427e-03, -1.55601320e-01, 0.00000000e+00, -1.55877312e+01, 0.00000000e+00, 0.00000000e+00, -9.97258693e+01, 1.72012056e+02, 0.00000000e+00, -5.42479411e+00, -1.82602681e+00, -3.63925659e+00, 3.37546092e-02, 0.00000000e+00, -1.1064042168, 4.2618783338, -1.6762853707, 3.4998134863, 10.0000000000, 99.9000000000, 0.0897898157
         130, -1.55535674e-01, 9.26565116e-03, 0.00000000e+00, 0.00000000e+00, 0.00000000e+00, -1.26473057e-01, 9.26565116e-03, -1.55535674e-01, 0.00000000e+00, -1.67862648e+01, 0.00000000e+00, 0.00000000e+00, -8.56124270e+01, 1.66083506e+02, 0.00000000e+00, -5.51017190e+00, -1.86426235e+00, -3.74293945e+00, -5.42807918e-02, 0.00000000e+00, -1.1534296854, 4.1593462232, -1.7601653167, 4.0019285724, 10.0000000000, 99.9000000000, 0.0966075659
         140, -1.55487222e-01, 8.65515849e-03, 0.00000000e+00, 0.00000000e+00, 0.00000000e+00, -1.26469310e-01, 8.65515849e-03, -1.55487222e-01, 0.00000000e+00, -1.79646881e+01, 0.00000000e+00, 0.00000000e+00, -7.44835074e+01, 1.61412576e+02, 0.00000000e+00, -5.58223371e+00, -1.89919704e+00, -3.82902634e+00, -1.27706777e-01, 0.00000000e+00, -1.2139695813, 4.0645537492, -1.8351402439, 3.1787252555, 10.0000000000, 99.9000000000, 0.1038362503
         150, -1.55451413e-01, 8.12806379e-03, 0.00000000e+00, 0.00000000e+00, 0.00000000e+00, -1.26468135e-01, 8.12806379e-03, -1.55451413e-01, 0.00000000e+00, -1.91252698e+01, 0.00000000e+00, 0.00000000e+00, -6.55131080e+01, 1.57608353e+02, 0.00000000e+00, -5.64314977e+00, -1.93126487e+00, -3.90569978e+00, -1.88568868e-01, 0.00000000e+00, -1.2721720675, 3.9761597044, -1.9031300532, 3.5398082960, 10.0000000000, 99.9000000000, 0.1108996828
         160, -1.55424460e-01, 7.66776733e-03, 0.00000000e+00, 0.00000000e+00, 0.00000000e+00, -1.26468635e-01, 7.66776733e-03, -1.55424460e-01, 0.00000000e+00, -2.02698456e+01, 0.00000000e+00, 0.00000000e+00, -5.81756380e+01, 1.54446532e+02, 0.00000000e+00, -5.69520592e+00, -1.96092856e+00, -3.97219235e+00, -2.39469922e-01, 0.00000000e+00, -1.3147069270, 3.8931589312, -1.9610983416, 3.0204589693, 10.0000000000, 99.9000000000, 0.1181394498
         170, -1.55404021e-01, 7.26188180e-03, 0.00000000e+00, 0.00000000e+00, 0.00000000e+00, -1.26470315e-01, 7.26188180e-03, -1.55404021e-01, 0.00000000e+00, -2.13999657e+01, 0.00000000e+00, 0.00000000e+00, -5.20751339e+01, 1.51758162e+02, 0.00000000e+00, -5.74031014e+00, -1.98864725e+00, -4.03386234e+00, -2.82713540e-01, 0.00000000e+00, -1.3710592609, 3.8148000437, -2.0143510560, 3.3293029928, 10.0000000000, 99.9000000000, 0.1262191017
         180, -1.55388180e-01, 6.90094276e-03, 0.00000000e+00, 0.00000000e+00, 0.00000000e+00, -1.26472686e-01, 6.90094276e-03, -1.55388180e-01, 0.00000000e+00, -2.25169496e+01, 0.00000000e+00, 0.00000000e+00, -4.69472493e+01, 1.49441734e+02, 0.00000000e+00, -5.77992621e+00, -2.01455629e+00, -4.08861163e+00, -3.20034213e-01, 0.00000000e+00, -1.4106600963, 3.7405091837, -2.0586140501, 2.8452609593, 10.0000000000, 99.9000000000, 0.1338519851
         190, -1.55375715e-01, 6.57760406e-03, 0.00000000e+00, 0.00000000e+00, 0.00000000e+00, -1.26475492e-01, 6.57760406e-03, -1.55375715e-01, 0.00000000e+00, -2.36219319e+01, 0.00000000e+00, 0.00000000e+00, -4.25865962e+01, 1.47415082e+02, 0.00000000e+00, -5.81525089e+00, -2.03889325e+00, -4.14190367e+00, -3.52859465e-01, 0.00000000e+00, -1.4644323381, 3.6698313578, -2.1006262280, 2.8708898096, 10.0000000000, 99.9000000000, 0.1409152826
         200, -1.55365706e-01, 6.28606911e-03, 0.00000000e+00, 0.00000000e+00, 0.00000000e+00, -1.26478497e-01, 6.28606911e-03, -1.55365706e-01, 0.00000000e+00, -2.47158761e+01, 0.00000000e+00, 0.00000000e+00, -3.88432943e+01, 1.45620991e+02, 0.00000000e+00, -5.84718849e+00, -2.06192272e+00, -4.18754366e+00, -3.82285872e-01, 0.00000000e+00, -1.5026668159, 3.6023614175, -2.1349695039, 2.7153627941, 10.0000000000, 99.9000000000, 0.1494907856
         210, -1.55357453e-01, 6.02169975e-03, 0.00000000e+00, 0.00000000e+00, 0.00000000e+00, -1.26481540e-01, 6.02169975e-03, -1.55357453e-01, 0.00000000e+00, -2.57996014e+01, 0.00000000e+00, 0.00000000e+00, -3.56053372e+01, 1.44019611e+02, 0.00000000e+00, -5.87634890e+00, -2.08371115e+00, -4.23521995e+00, -4.08992942e-01, 0.00000000e+00, -1.5359763725, 3.5378282133, -2.1673134137, 3.1913322626, 10.0000000000, 99.9000000000, 0.1565768679
         220, -1.55350554e-01, 5.78072828e-03, 0.00000000e+00, 0.00000000e+00, 0.00000000e+00, -1.26484553e-01, 5.78072828e-03, -1.55350554e-01, 0.00000000e+00, -2.68738724e+01, 0.00000000e+00, 0.00000000e+00, -3.27784610e+01, 1.42578062e+02, 0.00000000e+00, -5.90324912e+00, -2.10442360e+00, -4.27553961e+00, -4.33538893e-01, 0.00000000e+00, -1.5909660041, 3.4758970392, -2.1963341320, 2.7592097402, 10.0000000000, 99.9000000000, 0.1636234522
         230, -1.55344592e-01, 5.56007209e-03, 0.00000000e+00, 0.00000000e+00, 0.00000000e+00, -1.26487433e-01, 5.56007209e-03, -1.55344592e-01, 0.00000000e+00, -2.79393125e+01, 0.00000000e+00, 0.00000000e+00, -3.02991787e+01, 1.41271516e+02, 0.00000000e+00, -5.92827912e+00, -2.12410425e+00, -4.31654693e+00, -4.56329025e-01, 0.00000000e+00, -1.6226020465, 3.4164644181, -2.2230515609, 2.5353646371, 10.0000000000, 99.9000000000, 0.1706374844
         240, -1.55339418e-01, 5.35718153e-03, 0.00000000e+00, 0.00000000e+00, 0.00000000e+00, -1.26490195e-01, 5.35718153e-03, -1.55339418e-01, 0.00000000e+00, -2.89964819e+01, 0.00000000e+00, 0.00000000e+00, -2.81087004e+01, 1.40082394e+02, 0.00000000e+00, -5.95170600e+00, -2.14295873e+00, -4.35637990e+00, -4.77658888e-01, 0.00000000e+00, -1.6731283753, 3.3592111796, -2.2439293864, 2.5067897799, 10.0000000000, 99.9000000000, 0.1782990853
         250, -1.55334798e-01, 5.16992085e-03, 0.00000000e+00, 0.00000000e+00, 0.00000000e+00, -1.26492780e-01, 5.16992085e-03, -1.55334798e-01, 0.00000000e+00, -3.00458754e+01, 0.00000000e+00, 0.00000000e+00, -2.61616407e+01, 1.38996157e+02, 0.00000000e+00, -5.97374071e+00, -2.16101334e+00, -4.38935438e+00, -4.97716531e-01, 0.00000000e+00, -1.7072815956, 3.3040074103, -2.2711232542, 2.5019001508, 10.0000000000, 99.9000000000, 0.1853591998
         260, -1.55330602e-01, 4.99649283e-03, 0.00000000e+00, 0.00000000e+00, 0.00000000e+00, -1.26495183e-01, 4.99649283e-03, -1.55330602e-01, 0.00000000e+00, -3.10879265e+01, 0.00000000e+00, 0.00000000e+00, -2.44251723e+01, 1.37999668e+02, 0.00000000e+00, -5.99459821e+00, -2.17827936e+00, -4.42549599e+00, -5.16685243e-01, 0.00000000e+00, -1.7356634309, 3.2507805243, -2.2930575956, 2.3959120954, 10.0000000000, 99.9000000000, 0.1930444837
         270, -1.55326776e-01, 4.83537217e-03, 0.00000000e+00, 0.00000000e+00, 0.00000000e+00, -1.26497421e-01, 4.83537217e-03, -1.55326776e-01, 0.00000000e+00, -3.21230240e+01, 0.00000000e+00, 0.00000000e+00, -2.28680041e+01, 1.37083220e+02, 0.00000000e+00, -6.01441817e+00, -2.19488989e+00, -4.46058581e+00, -5.34699478e-01, 0.00000000e+00, -1.7837481362, 3.1992857892, -2.3153972010, 2.3365239655, 10.0000000000, 99.9000000000, 0.2000863512
         280, -1.55323227e-01, 4.68525421e-03, 0.00000000e+00, 0.00000000e+00, 0.00000000e+00, -1.26499478e-01, 4.68525421e-03, -1.55323227e-01, 0.00000000e+00, -3.31515048e+01, 0.00000000e+00, 0.00000000e+00, -2.14648927e+01, 1.36240943e+02, 0.00000000e+00, -6.03332479e+00, -2.21090121e+00, -4.49027654e+00, -5.51873263e-01, 0.00000000e+00, -1.8158990040, 3.1494371313, -2.3349030069, 2.5824438367, 10.0000000000, 99.9000000000, 0.2075451692
         290, -1.55319896e-01, 4.54501956e-03, 0.00000000e+00, 0.00000000e+00, 0.00000000e+00, -1.26501360e-01, 4.54501956e-03, -1.55319896e-01, 0.00000000e+00, -3.41736474e+01, 0.00000000e+00, 0.00000000e+00, -2.01970910e+01, 1.35468375e+02, 0.00000000e+00, -6.05141785e+00, -2.22632700e+00, -4.51936650e+00, -5.68295666e-01, 0.00000000e+00, -1.8431781295, 3.1012246313, -2.3544870812, 2.2631762251, 10.0000000000, 99.9000000000, 0.2145727833
         300, -1.55316758e-01, 4.41370042e-03, 0.00000000e+00, 0.00000000e+00, 0.00000000e+00, -1.26503078e-01, 4.41370042e-03, -1.55316758e-01, 0.00000000e+00, -3.51896919e+01, 0.00000000e+00, 0.00000000e+00, -1.90477057e+01, 1.34749678e+02, 0.00000000e+00, -6.06876567e+00, -2.24122083e+00, -4.55068786e+00, -5.84014173e-01, 0.00000000e+00, -1.8678676793, 3.0544505967, -2.3741426428, 2.8380239826, 10.0000000000, 99.9000000000, 0.2216207345
         310, -1.55313795e-01, 4.29045034e-03, 0.00000000e+00, 0.00000000e+00, 0.00000000e+00, -1.26504645e-01, 4.29045034e-03, -1.55313795e-01, 0.00000000e+00, -3.61998818e+01, 0.00000000e+00, 0.00000000e+00, -1.80011212e+01, 1.34098412e+02, 0.00000000e+00, -6.08544250e+00, -2.25567806e+00, -4.58087557e+00, -5.99090242e-01, 0.00000000e+00, -1.9160460241, 3.0089289205, -2.3936742412, 2.1802959428, 10.0000000000, 99.9000000000, 0.2287006696
         320, -1.55310954e-01, 4.17452906e-03, 0.00000000e+00, 0.00000000e+00, 0.00000000e+00, -1.26506051e-01, 4.17452906e-03, -1.55310954e-01, 0.00000000e+00, -3.72044252e+01, 0.00000000e+00, 0.00000000e+00, -1.70453276e+01, 1.33502427e+02, 0.00000000e+00, -6.10154369e+00, -2.26966159e+00, -4.60624107e+00, -6.13607920e-01, 0.00000000e+00, -1.9448832321, 2.9647671179, -2.4121209687, 2.4741258175, 10.0000000000, 99.9000000000, 0.2362073183
         330, -1.55308226e-01, 4.06529083e-03, 0.00000000e+00, 0.00000000e+00, 0.00000000e+00, -1.26507310e-01, 4.06529083e-03, -1.55308226e-01, 0.00000000e+00, -3.82034725e+01, 0.00000000e+00, 0.00000000e+00, -1.61707691e+01, 1.32959029e+02, 0.00000000e+00, -6.11713857e+00, -2.28317180e+00, -4.63031149e+00, -6.27620225e-01, 0.00000000e+00, -1.9694543148, 2.9219432459, -2.4305505449, 2.1296737419, 10.0000000000, 99.9000000000, 0.2433023016
         340, -1.55305610e-01, 3.96216757e-03, 0.00000000e+00, 0.00000000e+00, 0.00000000e+00, -1.26508434e-01, 3.96216757e-03, -1.55305610e-01, 0.00000000e+00, -3.91971331e+01, 0.00000000e+00, 0.00000000e+00, -1.53688779e+01, 1.32494574e+02, 0.00000000e+00, -6.13224444e+00, -2.29629101e+00, -4.65702516e+00, -6.41147157e-01, 0.00000000e+00, -1.9913911122, 2.8802638822, -2.4489332916, 2.0822184476, 10.0000000000, 99.9000000000, 0.2503027360
         350, -1.55303100e-01, 3.86465333e-03, 0.00000000e+00, 0.00000000e+00, 0.00000000e+00, -1.26509433e-01, 3.86465333e-03, -1.55303100e-01, 0.00000000e+00, -4.01855190e+01, 0.00000000e+00, 0.00000000e+00, -1.46311840e+01, 1.32095557e+02, 0.00000000e+00, -6.14688137e+00, -2.30909789e+00, -4.68341734e+00, -6.54205489e-01, 0.00000000e+00, -2.0334828674, 2.8395583193, -2.4677469077, 2.0578662355, 10.0000000000, 99.9000000000, 0.2573683182
         360, -1.55300669e-01, 3.77229551e-03, 0.00000000e+00, 0.00000000e+00, 0.00000000e+00, -1.26510294e-01, 3.77229551e-03, -1.55300669e-01, 0.00000000e+00, -4.11687443e+01, 0.00000000e+00, 0.00000000e+00, -1.39506759e+01, 1.31758929e+02, 0.00000000e+00, -6.16105178e+00, -2.32161147e+00, -4.70927705e+00, -6.66798952e-01, 0.00000000e+00, -2.0608033239, 2.7998101984, -2.4858775662, 2.0508701838, 10.0000000000, 99.9000000000, 0.2644127011
         370, -1.55298310e-01, 3.68469268e-03, 0.00000000e+00, 0.00000000e+00, 0.00000000e+00, -1.26511028e-01, 3.68469268e-03, -1.55298310e-01, 0.00000000e+00, -4.21468826e+01, 0.00000000e+00, 0.00000000e+00, -1.33217705e+01, 1.31501635e+02, 0.00000000e+00, -6.17486924e+00, -2.33377270e+00, -4.73162558e+00, -6.79017807e-01, 0.00000000e+00, -2.0861391948, 2.7611312229, -2.5033721215, 2.3831227056, 10.0000000000, 99.9000000000, 0.2714590510
         380, -1.55296018e-01, 3.60148656e-03, 0.00000000e+00, 0.00000000e+00, 0.00000000e+00, -1.26511646e-01, 3.60148656e-03, -1.55296018e-01, 0.00000000e+00, -4.31199772e+01, 0.00000000e+00, 0.00000000e+00, -1.27396999e+01, 1.31289449e+02, 0.00000000e+00, -6.18837207e+00, -2.34558072e+00, -4.75111591e+00, -6.90891609e-01, 0.00000000e+00, -2.1083656468, 2.7235201898, -2.5209717018, 2.0267854568, 10.0000000000, 99.9000000000, 0.2784488519
         390, -1.55293806e-01, 3.52235802e-03, 0.00000000e+00, 0.00000000e+00, 0.00000000e+00, -1.26512162e-01, 3.52235802e-03, -1.55293806e-01, 0.00000000e+00, -4.40880242e+01, 0.00000000e+00, 0.00000000e+00, -1.22004609e+01, 1.31189130e+02, 0.00000000e+00, -6.20155071e+00, -2.35710070e+00, -4.77343040e+00, -7.02416054e-01, 0.00000000e+00, -2.1281471517, 2.6867913626, -2.5385781442, 1.9346651253, 10.0000000000, 99.9000000000, 0.2855167190
         400, -1.55291672e-01, 3.44701686e-03, 0.00000000e+00, 0.00000000e+00, 0.00000000e+00, -1.26512587e-01, 3.44701686e-03, -1.55291672e-01, 0.00000000e+00, -4.50510335e+01, 0.00000000e+00, 0.00000000e+00, -1.16999774e+01, 1.31191893e+02, 0.00000000e+00, -6.21442125e+00, -2.36836198e+00, -4.79572781e+00, -7.13605920e-01, 0.00000000e+00, -2.1474636787, 2.6508823847, -2.5025524804, 2.5745077638, 10.0000000000, 99.9000000000, 0.2925584197
         410, -1.55289630e-01, 3.37520159e-03, 0.00000000e+00, 0.00000000e+00, 0.00000000e+00, -1.26512936e-01, 3.37520159e-03, -1.55289630e-01, 0.00000000e+00, -4.60089940e+01, 0.00000000e+00, 0.00000000e+00, -1.12345300e+01, 1.31316016e+02, 0.00000000e+00, -6.22696746e+00, -2.37943496e+00, -4.81863221e+00, -7.24444452e-01, 0.00000000e+00, -2.1844852745, 2.6155812975, -2.5738890735, 1.9286580671, 10.0000000000, 99.9000000000, 0.2995937665
         420, -1.55287652e-01, 3.30667903e-03, 0.00000000e+00, 0.00000000e+00, 0.00000000e+00, -1.26513203e-01, 3.30667903e-03, -1.55287652e-01, 0.00000000e+00, -4.69618159e+01, 0.00000000e+00, 0.00000000e+00, -1.08013033e+01, 1.31725546e+02, 0.00000000e+00, -6.23924668e+00, -2.39028238e+00, -4.84073776e+00, -7.34983189e-01, 0.00000000e+00, -2.2064951249, 2.5811069540, -2.5911007151, 1.8492313842, 10.0000000000, 99.9000000000, 0.3066771507
         430, -1.55285747e-01, 3.24124606e-03, 0.00000000e+00, 0.00000000e+00, 0.00000000e+00, -1.26513404e-01, 3.24124606e-03, -1.55285747e-01, 0.00000000e+00, -4.79092744e+01, 0.00000000e+00, 0.00000000e+00, -1.03986194e+01, 1.32900163e+02, 0.00000000e+00, -6.25129569e+00, -2.40090068e+00, -4.86147437e+00, -7.45250514e-01, 0.00000000e+00, -2.2269553897, 2.5535643071, -2.6080894405, 1.9800167957, 10.0000000000, 99.9000000000, 0.3137211005
         440, -1.55283914e-01, 3.17867561e-03, 0.00000000e+00, 0.00000000e+00, 0.00000000e+00, -1.26513541e-01, 3.17867561e-03, -1.55283914e-01, 0.00000000e+00, -4.88517650e+01, 0.00000000e+00, 0.00000000e+00, -1.00224360e+01, 1.34006228e+02, 0.00000000e+00, -6.26312827e+00, -2.41129796e+00, -4.88045612e+00, -7.55257543e-01, 0.00000000e+00, -2.2459880070, 2.5357904644, -2.6248114547, 2.2534175066, 10.0000000000, 99.9000000000, 0.3207879663
         450, -1.55282164e-01, 3.11874262e-03, 0.00000000e+00, 0.00000000e+00, 0.00000000e+00, -1.26513613e-01, 3.11874262e-03, -1.55282164e-01, 0.00000000e+00, -4.97899901e+01, 0.00000000e+00, 0.00000000e+00, -9.66825162e+00, 1.33881011e+02, 0.00000000e+00, -6.27478483e+00, -2.42146268e+00, -4.89711263e+00, -7.65038231e-01, 0.00000000e+00, -2.2632286936, 2.4967998143, -2.6416021348, 2.0543131430, 10.0000000000, 99.9000000000, 0.3278238177
         460, -1.55280496e-01, 3.06132623e-03, 0.00000000e+00, 0.00000000e+00, 0.00000000e+00, -1.26513633e-01, 3.06132623e-03, -1.55280496e-01, 0.00000000e+00, -5.07232762e+01, 0.00000000e+00, 0.00000000e+00, -9.33593339e+00, 1.33394353e+02, 0.00000000e+00, -6.28623796e+00, -2.43143263e+00, -4.91343449e+00, -7.74568882e-01, 0.00000000e+00, -2.2788474784, 2.4585809964, -2.6581063409, 1.7923375621, 10.0000000000, 99.9000000000, 0.3354412675
         470, -1.55278906e-01, 3.00628615e-03, 0.00000000e+00, 0.00000000e+00, 0.00000000e+00, -1.26513600e-01, 3.00628615e-03, -1.55278906e-01, 0.00000000e+00, -5.16514057e+01, 0.00000000e+00, 0.00000000e+00, -9.02426455e+00, 1.32800917e+02, 0.00000000e+00, -6.29746084e+00, -2.44123480e+00, -4.93149192e+00, -7.83826702e-01, 0.00000000e+00, -2.2930693584, 2.4247000689, -2.6743090729, 1.7502245937, 10.0000000000, 99.9000000000, 0.3424706340
         480, -1.55277388e-01, 2.95348640e-03, 0.00000000e+00, 0.00000000e+00, 0.00000000e+00, -1.26513517e-01, 2.95348640e-03, -1.55277388e-01, 0.00000000e+00, -5.25742690e+01, 0.00000000e+00, 0.00000000e+00, -8.73177541e+00, 1.32182486e+02, 0.00000000e+00, -6.30848892e+00, -2.45087416e+00, -4.94956503e+00, -7.92840791e-01, 0.00000000e+00, -2.3059638648, 2.3927421662, -2.6901068195, 1.7854561248, 10.0000000000, 99.9000000000, 0.3495044510
         490, -1.55275944e-01, 2.90280004e-03, 0.00000000e+00, 0.00000000e+00, 0.00000000e+00, -1.26513388e-01, 2.90280004e-03, -1.55275944e-01, 0.00000000e+00, -5.34917808e+01, 0.00000000e+00, 0.00000000e+00, -8.45703805e+00, 1.31568696e+02, 0.00000000e+00, -6.31932778e+00, -2.46036583e+00, -4.96735472e+00, -8.01615564e-01, 0.00000000e+00, -2.3251294498, 2.3618664743, -2.7051959250, 2.5306977198, 10.0000000000, 99.9000000000, 0.3565390666
         500, -1.55274578e-01, 2.85411010e-03, 0.00000000e+00, 0.00000000e+00, 0.00000000e+00, -1.26513216e-01, 2.85411010e-03, -1.55274578e-01, 0.00000000e+00, -5.44038502e+01, 0.00000000e+00, 0.00000000e+00, -8.19879347e+00, 1.30972976e+02, 0.00000000e+00, -6.32990893e+00, -2.46975827e+00, -4.98592851e+00, -8.10092115e-01, 0.00000000e+00, -2.3394542280, 2.3316208638, -2.7197969790, 1.6989384323, 10.0000000000, 99.9000000000, 0.3635635177
         510, -1.55273268e-01, 2.80730933e-03, 0.00000000e+00, 0.00000000e+00, 0.00000000e+00, -1.26512994e-01, 2.80730933e-03, -1.55273268e-01, 0.00000000e+00, -5.53103524e+01, 0.00000000e+00, 0.00000000e+00, -7.95593643e+00, 1.30401638e+02, 0.00000000e+00, -6.34033663e+00, -2.47900084e+00, -5.00336528e+00, -8.18363026e-01, 0.00000000e+00, -2.3495310049, 2.3021737758, -2.7339549153, 1.7014142061, 10.0000000000, 99.9000000000, 0.3705975493
         520, -1.55272021e-01, 2.76230000e-03, 0.00000000e+00, 0.00000000e+00, 0.00000000e+00, -1.26512727e-01, 2.76230000e-03, -1.55272021e-01, 0.00000000e+00, -5.62111361e+01, 0.00000000e+00, 0.00000000e+00, -7.72748876e+00, 1.29857340e+02, 0.00000000e+00, -6.35061301e+00, -2.48809718e+00, -5.01960702e+00, -8.26432625e-01, 0.00000000e+00, -2.3575035122, 2.2734377748, -2.7477028542, 1.6903923230, 10.0000000000, 99.9000000000, 0.3776205341
         530, -1.55270833e-01, 2.71899301e-03, 0.00000000e+00, 0.00000000e+00, 0.00000000e+00, -1.26512415e-01, 2.71899301e-03, -1.55270833e-01, 0.00000000e+00, -5.71060065e+01, 0.00000000e+00, 0.00000000e+00, -7.51254479e+00, 1.29340694e+02, 0.00000000e+00, -6.36073081e+00, -2.49705367e+00, -5.03480394e+00, -8.34298177e-01, 0.00000000e+00, -2.3633119898, 2.2453496244, -2.7075021962, 1.6715479598, 10.0000000000, 99.9000000000, 0.3846252998
         540, -1.55269700e-01, 2.67730642e-03, 0.00000000e+00, 0.00000000e+00, 0.00000000e+00, -1.26512058e-01, 2.67730642e-03, -1.55269700e-01, 0.00000000e+00, -5.79947439e+01, 0.00000000e+00, 0.00000000e+00, -7.31025205e+00, 1.28851310e+02, 0.00000000e+00, -6.37068314e+00, -2.50587602e+00, -5.04906062e+00, -8.41957878e-01, 0.00000000e+00, -2.3671795206, 2.2178730578, -2.7724691396, 1.6673194443, 10.0000000000, 99.9000000000, 0.3916373173
         550, -1.55268622e-01, 2.63716420e-03, 0.00000000e+00, 0.00000000e+00, 0.00000000e+00, -1.26511655e-01, 2.63716420e-03, -1.55268622e-01, 0.00000000e+00, -5.88771158e+01, 0.00000000e+00, 0.00000000e+00, -7.11981680e+00, 1.28388241e+02, 0.00000000e+00, -6.38046306e+00, -2.51456916e+00, -5.06237240e+00, -8.49410809e-01, 0.00000000e+00, -2.3692033439, 2.1909884916, -2.7837457180, 1.6584912363, 10.0000000000, 99.9000000000, 0.3986653845
         560, -1.55267594e-01, 2.59849544e-03, 0.00000000e+00, 0.00000000e+00, 0.00000000e+00, -1.26511207e-01, 2.59849544e-03, -1.55267594e-01, 0.00000000e+00, -5.97528833e+01, 0.00000000e+00, 0.00000000e+00, -6.94050876e+00, 1.27950155e+02, 0.00000000e+00, -6.39006236e+00, -2.52313704e+00, -5.07473304e+00, -8.56655773e-01, 0.00000000e+00, -2.3694884779, 2.1646879589, -2.7938765488, 1.6745591008, 10.0000000000, 99.9000000000, 0.4056691527
         570, -1.55266616e-01, 2.56123397e-03, 0.00000000e+00, 0.00000000e+00, 0.00000000e+00, -1.26510711e-01, 2.56123397e-03, -1.55266616e-01, 0.00000000e+00, -6.06218010e+01, 0.00000000e+00, 0.00000000e+00, -6.77165614e+00, 1.27535470e+02, 0.00000000e+00, -6.39947136e+00, -2.53158272e+00, -5.08615933e+00, -8.63691387e-01, 0.00000000e+00, -2.3680988158, 2.1389751888, -2.8028820204, 1.6505897141, 10.0000000000, 99.9000000000, 0.4126908660
         580, -1.55265685e-01, 2.52531800e-03, 0.00000000e+00, 0.00000000e+00, 0.00000000e+00, -1.26510166e-01, 2.52531800e-03, -1.55265685e-01, 0.00000000e+00, -6.14836172e+01, 0.00000000e+00, 0.00000000e+00, -6.61263716e+00, 1.27142487e+02, 0.00000000e+00, -6.40867756e+00, -2.53990833e+00, -5.09656013e+00, -8.70515441e-01, 0.00000000e+00, -2.3651633761, 2.1138656718, -2.8106891294, 1.6500022370, 10.0000000000, 99.9000000000, 0.4197030187
         590, -1.55264799e-01, 2.49068980e-03, 0.00000000e+00, 0.00000000e+00, 0.00000000e+00, -1.26509571e-01, 2.49068980e-03, -1.55264799e-01, 0.00000000e+00, -6.23380717e+01, 0.00000000e+00, 0.00000000e+00, -6.46288759e+00, 1.26769684e+02, 0.00000000e+00, -6.41766750e+00, -2.54811505e+00, -5.10593144e+00, -8.77125494e-01, 0.00000000e+00, -2.3608620469, 2.0893860391, -2.8171534761, 1.6503696627, 10.0000000000, 99.9000000000, 0.4267511010
         600, -1.55263954e-01, 2.45729228e-03, 0.00000000e+00, 0.00000000e+00, 0.00000000e+00, -1.26508922e-01, 2.45729228e-03, -1.55263954e-01, 0.00000000e+00, -6.31849762e+01, 0.00000000e+00, 0.00000000e+00, -6.32188934e+00, 1.26415686e+02, 0.00000000e+00, -6.42642542e+00, -2.55620309e+00, -5.11422508e+00, -8.83518321e-01, 0.00000000e+00, -2.3552523386, 2.0655737375, -2.8224001661, 1.6736147871, 10.0000000000, 99.9998050951, 0.4337788184
         610, -1.55263153e-01, 2.42506705e-03, 0.00000000e+00, 0.00000000e+00, 0.00000000e+00, -1.26508222e-01, 2.42506705e-03, -1.55263153e-01, 0.00000000e+00, -6.40242722e+01, 0.00000000e+00, 0.00000000e+00, -6.18912630e+00, 1.26079162e+02, 0.00000000e+00, -6.43493341e+00, -2.56417541e+00, -5.12138430e+00, -8.89690352e-01, 0.00000000e+00, -2.3485634884, 2.0424661691, -2.8263454961, 1.6535636715, 10.0000000000, 99.9935518877, 0.4408234835
         620, -1.55262392e-01, 2.39398050e-03, 0.00000000e+00, 0.00000000e+00, 0.00000000e+00, -1.26507468e-01, 2.39398050e-03, -1.55262392e-01, 0.00000000e+00, -6.48553285e+01, 0.00000000e+00, 0.00000000e+00, -6.06421493e+00, 1.25759120e+02, 0.00000000e+00, -6.44317327e+00, -2.57202622e+00, -5.12738501e+00, -8.95639007e-01, 0.00000000e+00, -2.3407924403, 2.0201388097, -2.8288056143, 1.6540464474, 10.0000000000, 99.9904810230, 0.4478241165
         630, -1.55261671e-01, 2.36398911e-03, 0.00000000e+00, 0.00000000e+00, 0.00000000e+00, -1.26506658e-01, 2.36398911e-03, -1.55261671e-01, 0.00000000e+00, -6.56778282e+01, 0.00000000e+00, 0.00000000e+00, -5.94676174e+00, 1.25454464e+02, 0.00000000e+00, -6.45111987e+00, -2.57975298e+00, -5.13219600e+00, -9.01356558e-01, 0.00000000e+00, -2.3321638526, 1.9986677965, -2.8298351034, 1.6569015077, 10.0000000000, 99.9871755158, 0.4548857331
         640, -1.55260989e-01, 2.33505239e-03, 0.00000000e+00, 0.00000000e+00, 0.00000000e+00, -1.26505791e-01, 2.33505239e-03, -1.55260989e-01, 0.00000000e+00, -6.64914369e+01, 0.00000000e+00, 0.00000000e+00, -5.83640674e+00, 1.25164143e+02, 0.00000000e+00, -6.45875131e+00, -2.58735236e+00, -5.13579182e+00, -9.06838227e-01, 0.00000000e+00, -2.3228125464, 1.9781392769, -2.8294724106, 1.6797590573, 10.0000000000, 99.9836079709, 0.4618882855
         650, -1.55260347e-01, 2.30713275e-03, 0.00000000e+00, 0.00000000e+00, 0.00000000e+00, -1.26504866e-01, 2.30713275e-03, -1.55260347e-01, 0.00000000e+00, -6.72958013e+01, 0.00000000e+00, 0.00000000e+00, -5.73280840e+00, 1.24887223e+02, 0.00000000e+00, -6.46604282e+00, -2.59481993e+00, -5.13815858e+00, -9.12078368e-01, 0.00000000e+00, -2.3128678400, 1.9586538342, -2.8277077390, 1.6729558799, 10.0000000000, 99.9797579416, 0.4690000852