TITLE = "SU2 Simulation"
VARIABLES = "Iteration","CL","CD","CSF","CMx","CMy","CMz","CFx","CFy","CFz","CL/CD","AoA","Custom_ObjFunc","HeatFlux_Total","HeatFlux_Maximum","Temperature_Total","Res_Flow[0]","Res_Flow[1]","Res_Flow[2]","Res_Flow[3]","Res_Flow[4]","Res_Turb[0]","Res_Turb[1]","Linear_Solver_Iterations","CFL_Number","Time(min)"
ZONE T= "Convergence history"
           0, 1.24720502e-02, 7.18380819e-02, 0.00000000e+00, 0.00000000e+00, 0.00000000e+00, 5.33444431e-03, 7.12770038e-02, 1.53574341e-02, 0.00000000e+00, 1.73613353e-01, 2.31000000e+00, 0.00000000e+00, -2.19431266e+05, 2.13060442e+05, 0.00000000e+00, -1.70011403e+00, -1.08191043e+01, -1.11006603e+01, 3.80541079e+00, 0.00000000e+00, -0.0606992188, 5.7005555116, 2.0000000000, 2.5000000000, 0.0015573661
          10, 1.98997211e-01, 2.25094445e-01, 0.00000000e+00, 0.00000000e+00, 0.00000000e+00, 7.50699966e-02, 2.16890710e-01, 2.07908199e-01, 0.00000000e+00, 8.84060958e-01, 2.31000000e+00, 0.00000000e+00, -5.42831833e+04, 6.41230867e+04, 0.00000000e+00, -2.22048192e+00, 2.01897406e-01, 2.90729636e-01, 3.28732673e+00, 0.00000000e+00, -0.4075505306, 4.9610426746, 8.0000000000, 4.5397589179, 0.0176114241
          20, 1.95860281e-01, 2.00998117e-01, 0.00000000e+00, 0.00000000e+00, 0.00000000e+00, 7.42358378e-02, 1.92940400e-01, 2.03802587e-01, 0.00000000e+00, 9.74438386e-01, 2.31000000e+00, 0.00000000e+00, -3.39427245e+04, 3.82196896e+04, 0.00000000e+00, -2.14510663e+00, 2.22792288e-01, 3.61710371e-01, 3.34742718e+00, 0.00000000e+00, -0.6620963423, 4.6022659683, 6.0000000000, 3.5843022106, 0.0342472156
          30, 1.91378267e-01, 1.72249068e-01, 0.00000000e+00, 0.00000000e+00, 0.00000000e+00, 7.46916742e-02, 1.64395367e-01, 1.98165451e-01, 0.00000000e+00, 1.11105545e+00, 2.31000000e+00, 0.00000000e+00, -2.58468583e+04, 2.72152033e+04, 0.00000000e+00, -2.09845188e+00, 2.83913973e-01, 3.86645087e-01, 3.38199668e+00, 0.00000000e+00, -0.8134626732, 4.4415387096, 6.0000000000, 3.0339835786, 0.0501526753
          40, 1.89233763e-01, 1.47890328e-01, 0.00000000e+00, 0.00000000e+00, 0.00000000e+00, 7.74836782e-02, 1.40142858e-01, 1.95040882e-01, 0.00000000e+00, 1.27955469e+00, 2.31000000e+00, 0.00000000e+00, -2.12373949e+04, 2.13711887e+04, 0.00000000e+00, -2.06026234e+00, 3.45156871e-01, 4.07203543e-01, 3.41002556e+00, 0.00000000e+00, -0.9215231679, 4.3318922949, 6.0000000000, 2.6523323373, 0.0660349528
          50, 1.89385137e-01, 1.30188571e-01, 0.00000000e+00, 0.00000000e+00, 0.00000000e+00, 8.15921063e-02, 1.22449384e-01, 1.94478643e-01, 0.00000000e+00, 1.45469864e+00, 2.31000000e+00, 0.00000000e+00, -1.81719935e+04, 1.77221715e+04, 0.00000000e+00, -2.02414993e+00, 3.82630497e-01, 4.16999890e-01, 3.43652196e+00, 0.00000000e+00, -1.0054111794, 4.2399994238, 5.0000000000, 2.5025000000, 0.0819304943
          60, 1.91264726e-01, 1.17628319e-01, 0.00000000e+00, 0.00000000e+00, 0.00000000e+00, 8.65467867e-02, 1.09823580e-01, 1.95850448e-01, 0.00000000e+00, 1.62600917e+00, 2.31000000e+00, 0.00000000e+00, -1.57898313e+04, 1.51933481e+04, 0.00000000e+00, -1.98556615e+00, 4.08324872e-01, 4.17027313e-01, 3.46793435e+00, 0.00000000e+00, -1.0788433090, 4.1657782917, 5.0000000000, 2.5025000000, 0.0978978117
          70, 1.93597624e-01, 1.09328092e-01, 0.00000000e+00, 0.00000000e+00, 0.00000000e+00, 9.12593027e-02, 1.01436068e-01, 1.97846900e-01, 0.00000000e+00, 1.77079487e+00, 2.31000000e+00, 0.00000000e+00, -1.38135537e+04, 1.35267511e+04, 0.00000000e+00, -1.94059331e+00, 4.39186002e-01, 4.20763920e-01, 3.50948470e+00, 0.00000000e+00, -1.1451019578, 4.1456344382, 5.0000000000, 2.5025000000, 0.1132569671
          80, 1.95070346e-01, 1.04285075e-01, 0.00000000e+00, 0.00000000e+00, 0.00000000e+00, 9.44436801e-02, 9.63377893e-02, 1.99115161e-01, 0.00000000e+00, 1.87054903e+00, 2.31000000e+00, 0.00000000e+00, -1.20983073e+04, 1.23581913e+04, 0.00000000e+00, -1.89292587e+00, 4.81017007e-01, 4.47118946e-01, 3.55538335e+00, 0.00000000e+00, -1.2054802366, 4.1034410596, 5.0000000000, 2.5025000000, 0.1290106018
          90, 1.96581369e-01, 1.01782463e-01, 0.00000000e+00, 0.00000000e+00, 0.00000000e+00, 9.54794360e-02, 9.37763073e-02, 2.00524085e-01, 0.00000000e+00, 1.93138742e+00, 2.31000000e+00, 0.00000000e+00, -1.05728313e+04, 1.13053435e+04, 0.00000000e+00, -1.85300621e+00, 5.21837639e-01, 4.84980672e-01, 3.59544213e+00, 0.00000000e+00, -1.2609003923, 4.0842046602, 5.0000000000, 2.5025000000, 0.1442531188
         100, 2.00101250e-01, 1.02066997e-01, 0.00000000e+00, 0.00000000e+00, 0.00000000e+00, 9.46195432e-02, 9.39187372e-02, 2.04052574e-01, 0.00000000e+00, 1.96048924e+00, 2.31000000e+00, 0.00000000e+00, -9.24813104e+03, 1.03244309e+04, 0.00000000e+00, -1.81682039e+00, 5.57305051e-01, 5.20145430e-01, 3.63055799e+00, 0.00000000e+00, -1.3124169845, 4.0698147556, 5.0000000000, 2.5025000000, 0.1597358664
         110, 2.04215324e-01, 1.05480727e-01, 0.00000000e+00, 0.00000000e+00, 0.00000000e+00, 9.32572017e-02, 9.71638702e-02, 2.08300899e-01, 0.00000000e+00, 1.93604396e+00, 2.31000000e+00, 0.00000000e+00, -8.13646687e+03, 9.54612677e+03, 0.00000000e+00, -1.78608289e+00, 5.86514354e-01, 5.49914569e-01, 3.65886619e+00, 0.00000000e+00, -1.3622045592, 4.0545103086, 5.0000000000, 2.5025000000, 0.1757176280
         120, 2.06509140e-01, 1.10601533e-01, 0.00000000e+00, 0.00000000e+00, 0.00000000e+00, 9.34210511e-02, 1.02188060e-01, 2.10799251e-01, 0.00000000e+00, 1.86714537e+00, 2.31000000e+00, 0.00000000e+00, -7.20822515e+03, 8.97692037e+03, 0.00000000e+00, -1.75916226e+00, 6.00028337e-01, 5.71664616e-01, 3.68047849e+00, 0.00000000e+00, -1.4131141440, 4.0553576671, 5.0000000000, 2.5025000000, 0.1914239009
         130, 2.09309960e-01, 1.14137488e-01, 0.00000000e+00, 0.00000000e+00, 0.00000000e+00, 9.61486012e-02, 1.05608251e-01, 2.13740316e-01, 0.00000000e+00, 1.83384060e+00, 2.31000000e+00, 0.00000000e+00, -6.41414845e+03, 8.45660082e+03, 0.00000000e+00, -1.73815121e+00, 5.97594386e-01, 5.81906607e-01, 3.69568433e+00, 0.00000000e+00, -1.4642140223, 4.0571646541, 5.0000000000, 2.5025000000, 0.2073881030
         140, 2.19564637e-01, 1.14299028e-01, 0.00000000e+00, 0.00000000e+00, 0.00000000e+00, 1.00815224e-01, 1.05356333e-01, 2.23993171e-01, 0.00000000e+00, 1.92096679e+00, 2.31000000e+00, 0.00000000e+00, -5.73184258e+03, 7.91414942e+03, 0.00000000e+00, -1.71735205e+00, 6.17437735e-01, 5.95422886e-01, 3.71417913e+00, 0.00000000e+00, -1.5101747501, 4.0478175882, 5.0000000000, 2.5025000000, 0.2225398103
         150, 2.38704813e-01, 1.11823613e-01, 0.00000000e+00, 0.00000000e+00, 0.00000000e+00, 1.07079478e-01, 1.02111463e-01, 2.43018019e-01, 0.00000000e+00, 2.13465480e+00, 2.31000000e+00, 0.00000000e+00, -5.16322692e+03, 7.43042125e+03, 0.00000000e+00, -1.70351543e+00, 6.27943999e-01, 6.08220481e-01, 3.72301445e+00, 0.00000000e+00, -1.5501501783, 4.0316949599, 5.0000000000, 2.5025000000, 0.2381330530
         160, 2.61308320e-01, 1.07693749e-01, 0.00000000e+00, 0.00000000e+00, 0.00000000e+00, 1.15401234e-01, 9.70738936e-02, 2.65436698e-01, 0.00000000e+00, 2.42640191e+00, 2.31000000e+00, 0.00000000e+00, -4.69944671e+03, 7.05027490e+03, 0.00000000e+00, -1.69523260e+00, 5.95702863e-01, 5.94678359e-01, 3.72048010e+00, 0.00000000e+00, -1.5876621978, 3.9972572920, 5.0000000000, 2.5025000000, 0.2534290075
         170, 2.84000137e-01, 1.02337755e-01, 0.00000000e+00, 0.00000000e+00, 0.00000000e+00, 1.25631422e-01, 9.08076309e-02, 2.87894195e-01, 0.00000000e+00, 2.77512573e+00, 2.31000000e+00, 0.00000000e+00, -4.32289315e+03, 6.70575014e+03, 0.00000000e+00, -1.68831151e+00, 5.60653740e-01, 5.63773536e-01, 3.71901478e+00, 0.00000000e+00, -1.6219087904, 3.9519738663, 5.0000000000, 2.5025000000, 0.2685813785
         180, 3.06709882e-01, 9.60134154e-02, 0.00000000e+00, 0.00000000e+00, 0.00000000e+00, 1.36619491e-01, 8.35730875e-02, 3.10330577e-01, 0.00000000e+00, 3.19444820e+00, 2.31000000e+00, 0.00000000e+00, -4.00260838e+03, 6.38510689e+03, 0.00000000e+00, -1.68256215e+00, 5.49077581e-01, 5.34384324e-01, 3.72093093e+00, 0.00000000e+00, -1.6483312266, 3.9338621621, 5.0000000000, 2.5025000000, 0.2836250703
         190, 3.29316918e-01, 8.91022260e-02, 0.00000000e+00, 0.00000000e+00, 0.00000000e+00, 1.46974146e-01, 7.57563110e-02, 3.32640678e-01, 0.00000000e+00, 3.69594490e+00, 2.31000000e+00, 0.00000000e+00, -3.71029784e+03, 6.16897731e+03, 0.00000000e+00, -1.67722388e+00, 5.50664657e-01, 5.12998376e-01, 3.72459630e+00, 0.00000000e+00, -1.6616613506, 3.9161259405, 5.0000000000, 2.5025000000, 0.2988430381
         200, 3.50368356e-01, 8.20712458e-02, 0.00000000e+00, 0.00000000e+00, 0.00000000e+00, 1.55762313e-01, 6.78825411e-02, 3.53391617e-01, 0.00000000e+00, 4.26907564e+00, 2.31000000e+00, 0.00000000e+00, -3.43229285e+03, 6.11387971e+03, 0.00000000e+00, -1.67312911e+00, 5.56839400e-01, 5.02971256e-01, 3.72777751e+00, 0.00000000e+00, -1.6594959721, 3.9200600945, 5.0000000000, 2.5025000000, 0.3138887207
         210, 3.68120591e-01, 7.56664547e-02, 0.00000000e+00, 0.00000000e+00, 0.00000000e+00, 1.62432118e-01, 6.07674299e-02, 3.70871273e-01, 0.00000000e+00, 4.86504347e+00, 2.31000000e+00, 0.00000000e+00, -3.16886680e+03, 6.14541648e+03, 0.00000000e+00, -1.66951889e+00, 5.65681803e-01, 5.00822075e-01, 3.73095428e+00, 0.00000000e+00, -1.6444253874, 3.9447594796, 5.0000000000, 2.5025000000, 0.3290209254
         220, 3.81328321e-01, 7.06081317e-02, 0.00000000e+00, 0.00000000e+00, 0.00000000e+00, 1.66506469e-01, 5.51808642e-02, 3.83864389e-01, 0.00000000e+00, 5.40062896e+00, 2.31000000e+00, 0.00000000e+00, -2.92249314e+03, 6.11897993e+03, 0.00000000e+00, -1.66884639e+00, 5.67142009e-01, 4.93903406e-01, 3.73054603e+00, 0.00000000e+00, -1.6226952800, 3.9684620745, 5.0000000000, 2.5012223891, 0.3441985925
         230, 3.90124038e-01, 6.68519638e-02, 0.00000000e+00, 0.00000000e+00, 0.00000000e+00, 1.67959247e-01, 5.10732269e-02, 3.92501561e-01, 0.00000000e+00, 5.83564066e+00, 2.31000000e+00, 0.00000000e+00, -2.69590091e+03, 5.97059352e+03, 0.00000000e+00, -1.66775245e+00, 5.52095800e-01, 4.77967219e-01, 3.72946477e+00, 0.00000000e+00, -1.6034963789, 3.9754967320, 5.0000000000, 2.5007857477, 0.3593844056
         240, 3.96731207e-01, 6.36391314e-02, 0.00000000e+00, 0.00000000e+00, 0.00000000e+00, 1.67592136e-01, 4.75966956e-02, 3.98973864e-01, 0.00000000e+00, 6.23407640e+00, 2.31000000e+00, 0.00000000e+00, -2.49353174e+03, 5.77442869e+03, 0.00000000e+00, -1.66731642e+00, 5.27112299e-01, 4.65974695e-01, 3.72831916e+00, 0.00000000e+00, -1.5942430794, 3.9756978040, 5.0000000000, 2.5011173157, 0.3745152156
         250, 4.04538849e-01, 6.02985078e-02, 0.00000000e+00, 0.00000000e+00, 0.00000000e+00, 1.66897397e-01, 4.39440904e-02, 4.06640513e-01, 0.00000000e+00, 6.70893631e+00, 2.31000000e+00, 0.00000000e+00, -2.32074413e+03, 5.59968655e+03, 0.00000000e+00, -1.66833684e+00, 5.04366093e-01, 4.68256414e-01, 3.72663856e+00, 0.00000000e+00, -1.5881084620, 3.9743318989, 5.0000000000, 2.5038349650, 0.3899624348
         260, 4.16256066e-01, 5.66677207e-02, 0.00000000e+00, 0.00000000e+00, 0.00000000e+00, 1.67340612e-01, 3.98439775e-02, 4.18201866e-01, 0.00000000e+00, 7.34555865e+00, 2.31000000e+00, 0.00000000e+00, -2.18246851e+03, 5.42552476e+03, 0.00000000e+00, -1.66907005e+00, 4.86024126e-01, 4.72704923e-01, 3.72512348e+00, 0.00000000e+00, -1.5796502296, 3.9956703946, 5.0000000000, 2.5060361723, 0.4051892757
         270, 4.32952556e-01, 5.28123028e-02, 0.00000000e+00, 0.00000000e+00, 0.00000000e+00, 1.69592843e-01, 3.53187208e-02, 4.34729391e-01, 0.00000000e+00, 8.19794883e+00, 2.31000000e+00, 0.00000000e+00, -2.07613882e+03, 5.27658829e+03, 0.00000000e+00, -1.66967875e+00, 4.80478548e-01, 4.70718347e-01, 3.72424170e+00, 0.00000000e+00, -1.5711059982, 4.0238542452, 5.0000000000, 2.5080283709, 0.4203934193
         280, 4.53755075e-01, 4.87264980e-02, 0.00000000e+00, 0.00000000e+00, 0.00000000e+00, 1.73120682e-01, 3.03977660e-02, 4.55350322e-01, 0.00000000e+00, 9.31228579e+00, 2.31000000e+00, 0.00000000e+00, -2.00452836e+03, 5.23148293e+03, 0.00000000e+00, -1.66805816e+00, 4.93051470e-01, 4.67209175e-01, 3.72683788e+00, 0.00000000e+00, -1.5620741876, 4.0382455267, 5.0000000000, 2.5002408121, 0.4351860046
         290, 4.76225606e-01, 4.43953735e-02, 0.00000000e+00, 0.00000000e+00, 0.00000000e+00, 1.76525147e-01, 2.51644598e-02, 4.77628021e-01, 0.00000000e+00, 1.07269197e+01, 2.31000000e+00, 0.00000000e+00, -1.96663681e+03, 5.29100096e+03, 0.00000000e+00, -1.66456562e+00, 5.10745398e-01, 4.66495159e-01, 3.73252035e+00, 0.00000000e+00, -1.5537053386, 4.0235767359, 5.0000000000, 2.5025000000, 0.4497704864
         300, 4.97341433e-01, 4.00312844e-02, 0.00000000e+00, 0.00000000e+00, 0.00000000e+00, 1.78331814e-01, 1.99528185e-02, 4.98550790e-01, 0.00000000e+00, 1.24238191e+01, 2.31000000e+00, 0.00000000e+00, -1.95612748e+03, 5.36987920e+03, 0.00000000e+00, -1.66045168e+00, 5.20807473e-01, 4.67402650e-01, 3.73890690e+00, 0.00000000e+00, -1.5453622139, 4.0187375685, 5.0000000000, 2.5025000000, 0.4650178234
         310, 5.14586426e-01, 3.61257530e-02, 0.00000000e+00, 0.00000000e+00, 0.00000000e+00, 1.77660121e-01, 1.53553810e-02, 5.15624352e-01, 0.00000000e+00, 1.42443101e+01, 2.31000000e+00, 0.00000000e+00, -1.96559042e+03, 5.44453365e+03, 0.00000000e+00, -1.65538291e+00, 5.22888315e-01, 4.70329206e-01, 3.74529134e+00, 0.00000000e+00, -1.5406655154, 4.0020275477, 5.0000000000, 2.5025000000, 0.4806773782
         320, 5.26599334e-01, 3.32462272e-02, 0.00000000e+00, 0.00000000e+00, 0.00000000e+00, 1.74523323e-01, 1.19940008e-02, 5.27511435e-01, 0.00000000e+00, 1.58393712e+01, 2.31000000e+00, 0.00000000e+00, -1.97324851e+03, 5.48012832e+03, 0.00000000e+00, -1.65104261e+00, 5.23763013e-01, 4.86077663e-01, 3.74910941e+00, 0.00000000e+00, -1.5414980902, 3.9993487666, 5.0000000000, 2.5025000000, 0.4955289404
         330, 5.33032719e-01, 3.16846883e-02, 0.00000000e+00, 0.00000000e+00, 0.00000000e+00, 1.69651760e-01, 1.01744255e-02, 5.33876652e-01, 0.00000000e+00, 1.68230381e+01, 2.31000000e+00, 0.00000000e+00, -1.98134608e+03, 5.49857182e+03, 0.00000000e+00, -1.65005340e+00, 5.28575619e-01, 5.19006896e-01, 3.74757744e+00, 0.00000000e+00, -1.5449716575, 3.9998814167, 5.0000000000, 2.5006340949, 0.5106971979
         340, 5.34841175e-01, 3.12567915e-02, 0.00000000e+00, 0.00000000e+00, 0.00000000e+00, 1.64384354e-01, 9.67398453e-03, 5.35666392e-01, 0.00000000e+00, 1.71111989e+01, 2.31000000e+00, 0.00000000e+00, -1.96183810e+03, 5.44353613e+03, 0.00000000e+00, -1.64936076e+00, 5.36330971e-01, 5.47979077e-01, 3.74535934e+00, 0.00000000e+00, -1.5464082840, 3.9767054459, 5.0000000000, 2.5025000000, 0.5262192090
         350, 5.34165965e-01, 3.13253120e-02, 0.00000000e+00, 0.00000000e+00, 0.00000000e+00, 1.60203678e-01, 9.76966455e-03, 5.34994492e-01, 0.00000000e+00, 1.70522153e+01, 2.31000000e+00, 0.00000000e+00, -1.92630874e+03, 5.34097506e+03, 0.00000000e+00, -1.64296357e+00, 5.39355018e-01, 5.49073247e-01, 3.75074864e+00, 0.00000000e+00, -1.5422004703, 4.0247371664, 5.0000000000, 2.5025000000, 0.5408597271
         360, 5.34161152e-01, 3.11004496e-02, 0.00000000e+00, 0.00000000e+00, 0.00000000e+00, 1.58237097e-01, 9.54517883e-03, 5.34980620e-01, 0.00000000e+00, 1.71753514e+01, 2.31000000e+00, 0.00000000e+00, -1.85763313e+03, 5.19289654e+03, 0.00000000e+00, -1.63000739e+00, 5.30828580e-01, 5.20666807e-01, 3.76448372e+00, 0.00000000e+00, -1.5317536909, 3.9957306116, 5.0000000000, 2.5025000000, 0.5563631654
         370, 5.37629179e-01, 3.00304324e-02, 0.00000000e+00, 0.00000000e+00, 0.00000000e+00, 1.58679869e-01, 8.33624820e-03, 5.38402701e-01, 0.00000000e+00, 1.79028118e+01, 2.31000000e+00, 0.00000000e+00, -1.76690789e+03, 5.07428880e+03, 0.00000000e+00, -1.61603964e+00, 5.20314959e-01, 4.97343234e-01, 3.77993005e+00, 0.00000000e+00, -1.5204302443, 4.0655256066, 6.0000000000, 2.5025000000, 0.5713243524
         380, 5.46025083e-01, 2.80641533e-02, 0.00000000e+00, 0.00000000e+00, 0.00000000e+00, 1.60951595e-01, 6.03316011e-03, 5.46712529e-01, 0.00000000e+00, 1.94563177e+01, 2.31000000e+00, 0.00000000e+00, -1.67056383e+03, 4.96376017e+03, 0.00000000e+00, -1.60581696e+00, 5.28020637e-01, 5.23266092e-01, 3.79194323e+00, 0.00000000e+00, -1.5114432177, 4.0613722005, 6.0000000000, 2.5025000000, 0.5865433693
         390, 5.59038766e-01, 2.55354639e-02, 0.00000000e+00, 0.00000000e+00, 0.00000000e+00, 1.64101913e-01, 2.98199366e-03, 5.59613715e-01, 0.00000000e+00, 2.18926419e+01, 2.31000000e+00, 0.00000000e+00, -1.55103001e+03, 4.90617000e+03, 0.00000000e+00, -1.59893570e+00, 5.50899081e-01, 5.74098425e-01, 3.79977567e+00, 0.00000000e+00, -1.5086002239, 4.1065166720, 6.0000000000, 2.5025000000, 0.6015745004
         400, 5.75048876e-01, 2.29717799e-02, 0.00000000e+00, 0.00000000e+00, 0.00000000e+00, 1.67191883e-01, -2.24913449e-04, 5.75507482e-01, 0.00000000e+00, 2.50328393e+01, 2.31000000e+00, 0.00000000e+00, -1.47603436e+03, 4.73750261e+03, 0.00000000e+00, -1.59256089e+00, 5.67837177e-01, 5.98376010e-01, 3.80509114e+00, 0.00000000e+00, -1.5092441938, 4.0951128443, 6.0000000000, 2.5025000000, 0.6165550033
         410, 5.92293433e-01, 2.07720973e-02, 0.00000000e+00, 0.00000000e+00, 0.00000000e+00, 1.69576428e-01, -3.11787088e-03, 5.92649365e-01, 0.00000000e+00, 2.85138966e+01, 2.31000000e+00, 0.00000000e+00, -1.38556045e+03, 4.68820127e+03, 0.00000000e+00, -1.58422037e+00, 5.79035172e-01, 5.77455286e-01, 3.81196183e+00, 0.00000000e+00, -1.5164088475, 4.1121037507, 6.0000000000, 2.5025000000, 0.6316892902
         420, 6.09177516e-01, 1.91274335e-02, 0.00000000e+00, 0.00000000e+00, 0.00000000e+00, 1.70803289e-01, -5.44173112e-03, 6.09453437e-01, 0.00000000e+00, 3.18483667e+01, 2.31000000e+00, 0.00000000e+00, -1.36099785e+03, 4.56475621e+03, 0.00000000e+00, -1.57393708e+00, 6.06513436e-01, 5.30597300e-01, 3.82366621e+00, 0.00000000e+00, -1.5253587438, 4.1291585111, 6.0000000000, 2.5025000000, 0.6468478282
         430, 6.24672457e-01, 1.80634424e-02, 0.00000000e+00, 0.00000000e+00, 0.00000000e+00, 1.70671006e-01, -7.12939950e-03, 6.24892901e-01, 0.00000000e+00, 3.45821379e+01, 2.31000000e+00, 0.00000000e+00, -1.33517543e+03, 4.81825444e+03, 0.00000000e+00, -1.56438320e+00, 6.48216661e-01, 5.18502676e-01, 3.83720037e+00, 0.00000000e+00, -1.5342715952, 4.1099162140, 6.0000000000, 2.5025000000, 0.6620409369
         440, 6.38204404e-01, 1.74649065e-02, 0.00000000e+00, 0.00000000e+00, 0.00000000e+00, 1.69061263e-01, -8.27287018e-03, 6.38389727e-01, 0.00000000e+00, 3.65421025e+01, 2.31000000e+00, 0.00000000e+00, -1.33332506e+03, 4.66419649e+03, 0.00000000e+00, -1.55796147e+00, 6.72478157e-01, 5.63164093e-01, 3.84548959e+00, 0.00000000e+00, -1.5450331299, 4.1779299367, 5.0000000000, 2.5025000000, 0.6766412536
         450, 6.49642974e-01, 1.72887479e-02, 0.00000000e+00, 0.00000000e+00, 0.00000000e+00, 1.66065013e-01, -8.90993076e-03, 6.49811902e-01, 0.00000000e+00, 3.75760568e+01, 2.31000000e+00, 0.00000000e+00, -1.33684234e+03, 4.74921801e+03, 0.00000000e+00, -1.55416389e+00, 6.57015804e-01, 6.06854946e-01, 3.84587524e+00, 0.00000000e+00, -1.5565265741, 4.1208076465, 5.0000000000, 2.5025000000, 0.6912349383
         460, 6.59155487e-01, 1.74854502e-02, 0.00000000e+00, 0.00000000e+00, 0.00000000e+00, 1.61890408e-01, -9.09680139e-03, 6.59324613e-01, 0.00000000e+00, 3.76973700e+01, 2.31000000e+00, 0.00000000e+00, -1.33950522e+03, 4.67352010e+03, 0.00000000e+00, -1.55014706e+00, 6.02443728e-01, 6.15713727e-01, 3.84322009e+00, 0.00000000e+00, -1.5662323856, 4.1683341718, 5.0000000000, 2.5025000000, 0.7057811260
         470, 6.66746858e-01, 1.79162646e-02, 0.00000000e+00, 0.00000000e+00, 0.00000000e+00, 1.56817154e-01, -8.97231628e-03, 6.66927180e-01, 0.00000000e+00, 3.72146132e+01, 2.31000000e+00, 0.00000000e+00, -1.35134306e+03, 4.27945671e+03, 0.00000000e+00, -1.54370904e+00, 5.33837006e-01, 5.94819590e-01, 3.84445219e+00, 0.00000000e+00, -1.5702206144, 4.1365371151, 5.0000000000, 2.5025000000, 0.7204321186
         480, 6.72905824e-01, 1.84742031e-02, 0.00000000e+00, 0.00000000e+00, 0.00000000e+00, 1.51434776e-01, -8.66307560e-03, 6.73103629e-01, 0.00000000e+00, 3.64240785e+01, 2.31000000e+00, 0.00000000e+00, -1.34920404e+03, 4.22165293e+03, 0.00000000e+00, -1.53505909e+00, 4.94613154e-01, 5.68430519e-01, 3.85167940e+00, 0.00000000e+00, -1.5653022522, 4.1395394822, 5.0000000000, 2.5025000000, 0.7350313942
         490, 6.78270093e-01, 1.90105492e-02, 0.00000000e+00, 0.00000000e+00, 0.00000000e+00, 1.46361978e-01, -8.34337853e-03, 6.78485157e-01, 0.00000000e+00, 3.56786164e+01, 2.31000000e+00, 0.00000000e+00, -1.37460300e+03, 3.92210290e+03, 0.00000000e+00, -1.52603839e+00, 4.99043577e-01, 5.61129366e-01, 3.86147871e+00, 0.00000000e+00, -1.5534322208, 4.1256952410, 5.0000000000, 2.5025000000, 0.7494522174
         500, 6.83343288e-01, 1.93489287e-02, 0.00000000e+00, 0.00000000e+00, 0.00000000e+00, 1.42030943e-01, -8.20975516e-03, 6.83567868e-01, 0.00000000e+00, 3.53168539e+01, 2.31000000e+00, 0.00000000e+00, -1.37677044e+03, 3.93717931e+03, 0.00000000e+00, -1.51804301e+00, 5.18485504e-01, 5.74579251e-01, 3.86999642e+00, 0.00000000e+00, -1.5399934960, 4.1286438347, 5.0000000000, 2.5025000000, 0.7641362786
         510, 6.88774637e-01, 1.94929901e-02, 0.00000000e+00, 0.00000000e+00, 0.00000000e+00, 1.38657934e-01, -8.28472779e-03, 6.89000610e-01, 0.00000000e+00, 3.53344783e+01, 2.31000000e+00, 0.00000000e+00, -1.37907695e+03, 3.87957460e+03, 0.00000000e+00, -1.51095983e+00, 5.33504826e-01, 5.94328752e-01, 3.87645285e+00, 0.00000000e+00, -1.5280131275, 4.1077196803, 5.0000000000, 2.5025000000, 0.7786604762
         520, 6.94685787e-01, 1.94869624e-02, 0.00000000e+00, 0.00000000e+00, 0.00000000e+00, 1.36050498e-01, -8.52900648e-03, 6.94906713e-01, 0.00000000e+00, 3.56487467e+01, 2.31000000e+00, 0.00000000e+00, -1.37921569e+03, 3.83545131e+03, 0.00000000e+00, -1.50375462e+00, 5.43602224e-01, 6.12358711e-01, 3.88245571e+00, 0.00000000e+00, -1.5213192985, 4.0770274182, 5.0000000000, 2.5025000000, 0.7936247269
         530, 7.00614045e-01, 1.94218803e-02, 0.00000000e+00, 0.00000000e+00, 0.00000000e+00, 1.33725385e-01, -8.83298114e-03, 7.00827531e-01, 0.00000000e+00, 3.60734405e+01, 2.31000000e+00, 0.00000000e+00, -1.35883545e+03, 3.86292043e+03, 0.00000000e+00, -1.49583313e+00, 5.53045311e-01, 6.30443165e-01, 3.88928865e+00, 0.00000000e+00, -1.5203848171, 4.0966317837, 5.0000000000, 2.5025000000, 0.8086406867
         540, 7.05875805e-01, 1.94061575e-02, 0.00000000e+00, 0.00000000e+00, 0.00000000e+00, 1.31193980e-01, -9.06077270e-03, 7.06084381e-01, 0.00000000e+00, 3.63738059e+01, 2.31000000e+00, 0.00000000e+00, -1.32487167e+03, 3.84251869e+03, 0.00000000e+00, -1.48758259e+00, 5.62638238e-01, 6.51607204e-01, 3.89662472e+00, 0.00000000e+00, -1.5202279213, 4.0423666866, 5.0000000000, 2.5025000000, 0.8243634105
         550, 7.10256961e-01, 1.95773715e-02, 0.00000000e+00, 0.00000000e+00, 0.00000000e+00, 1.28225865e-01, -9.06628547e-03, 7.10468878e-01, 0.00000000e+00, 3.62794853e+01, 2.31000000e+00, 0.00000000e+00, -1.28628740e+03, 3.88885143e+03, 0.00000000e+00, -1.47980133e+00, 5.72255419e-01, 6.74596467e-01, 3.90350592e+00, 0.00000000e+00, -1.5124500498, 4.0542600269, 5.0000000000, 2.5025000000, 0.8392891685
         560, 7.13505478e-01, 1.99800215e-02, 0.00000000e+00, 0.00000000e+00, 0.00000000e+00, 1.24741141e-01, -8.79489802e-03, 7.13730984e-01, 0.00000000e+00, 3.57109465e+01, 2.31000000e+00, 0.00000000e+00, -1.25406635e+03, 3.92256013e+03, 0.00000000e+00, -1.47315534e+00, 5.84649222e-01, 6.96322780e-01, 3.90941496e+00, 0.00000000e+00, -1.4943870475, 4.0150350944, 5.0000000000, 2.5025000000, 0.8547848105
         570, 7.15593506e-01, 2.05595231e-02, 0.00000000e+00, 0.00000000e+00, 0.00000000e+00, 1.20798890e-01, -8.30002776e-03, 7.15840673e-01, 0.00000000e+00, 3.48059390e+01, 2.31000000e+00, 0.00000000e+00, -1.21647337e+03, 3.97517198e+03, 0.00000000e+00, -1.46804098e+00, 6.04036287e-01, 7.16033201e-01, 3.91446217e+00, 0.00000000e+00, -1.4665718399, 4.0358328851, 5.0000000000, 2.5025000000, 0.8696255247
         580, 7.16455474e-01, 2.12333105e-02, 0.00000000e+00, 0.00000000e+00, 0.00000000e+00, 1.16479205e-01, -7.66153054e-03, 7.16729099e-01, 0.00000000e+00, 3.37420523e+01, 2.31000000e+00, 0.00000000e+00, -1.18513649e+03, 4.02574609e+03, 0.00000000e+00, -1.46476419e+00, 6.31952611e-01, 7.35665417e-01, 3.91895497e+00, 0.00000000e+00, -1.4305834125, 3.9817420332, 5.0000000000, 2.5025000000, 0.8844776154
         590, 7.16322547e-01, 2.19372926e-02, 0.00000000e+00, 0.00000000e+00, 0.00000000e+00, 1.11912881e-01, -6.95276275e-03, 7.16624655e-01, 0.00000000e+00, 3.26531884e+01, 2.31000000e+00, 0.00000000e+00, -1.16078616e+03, 4.06705126e+03, 0.00000000e+00, -1.46404217e+00, 6.65382936e-01, 7.55800829e-01, 3.92268700e+00, 0.00000000e+00, -1.3899727616, 3.9880886341, 5.0000000000, 2.5026516367, 0.8998810410
         600, 7.15093028e-01, 2.26154293e-02, 0.00000000e+00, 0.00000000e+00, 0.00000000e+00, 1.07127023e-01, -6.22561989e-03, 7.15423467e-01, 0.00000000e+00, 3.16196973e+01, 2.31000000e+00, 0.00000000e+00, -1.15344304e+03, 4.10616823e+03, 0.00000000e+00, -1.46794322e+00, 6.98292694e-01, 7.71569104e-01, 3.92385390e+00, 0.00000000e+00, -1.3420922436, 3.9454495054, 5.0000000000, 2.5121603348, 0.9148383617
         610, 7.12855747e-01, 2.32816243e-02, 0.00000000e+00, 0.00000000e+00, 0.00000000e+00, 1.02271206e-01, -5.46978997e-03, 7.13214856e-01, 0.00000000e+00, 3.06188150e+01, 2.31000000e+00, 0.00000000e+00, -1.14171656e+03, 4.14873716e+03, 0.00000000e+00, -1.48028221e+00, 7.24224076e-01, 7.73286108e-01, 3.91862271e+00, 0.00000000e+00, -1.2892053069, 3.9369217913, 5.0000000000, 2.5450125053, 0.9307480971
         620, 7.09989955e-01, 2.40389679e-02, 0.00000000e+00, 0.00000000e+00, 0.00000000e+00, 9.76844888e-02, -4.59755268e-03, 7.10381919e-01, 0.00000000e+00, 2.95349600e+01, 2.31000000e+00, 0.00000000e+00, -1.13204899e+03, 4.20135401e+03, 0.00000000e+00, -1.50584741e+00, 7.37851513e-01, 7.49989818e-01, 3.90193838e+00, 0.00000000e+00, -1.2307474566, 3.9123657417, 5.0000000000, 2.6164030431, 0.9455086907
         630, 7.07435230e-01, 2.50556817e-02, 0.00000000e+00, 0.00000000e+00, 0.00000000e+00, 9.39496125e-02, -3.47869390e-03, 7.07870249e-01, 0.00000000e+00, 2.82345234e+01, 2.31000000e+00, 0.00000000e+00, -1.11889908e+03, 4.26692877e+03, 0.00000000e+00, -1.54884112e+00, 7.34917546e-01, 6.91590108e-01, 3.86879538e+00, 0.00000000e+00, -1.1711894813, 3.9022117351, 5.0000000000, 2.7432457543, 0.9606647968
         640, 7.06271530e-01, 2.64250662e-02, 0.00000000e+00, 0.00000000e+00, 0.00000000e+00, 9.17414967e-02, -2.06351789e-03, 7.06762690e-01, 0.00000000e+00, 2.67273325e+01, 2.31000000e+00, 0.00000000e+00, -1.10492512e+03, 4.34135659e+03, 0.00000000e+00, -1.61033234e+00, 7.11585505e-01, 5.93252405e-01, 3.81551603e+00, 0.00000000e+00, -1.1147069825, 3.8753752042, 5.0000000000, 2.9387207091, 0.9757136106
         650, 7.07732097e-01, 2.80278842e-02, 0.00000000e+00, 0.00000000e+00, 0.00000000e+00, 9.17276242e-02, -5.20872264e-04, 7.08286673e-01, 0.00000000e+00, 2.52509998e+01, 2.31000000e+00, 0.00000000e+00, -1.07187139e+03, 4.40798265e+03, 0.00000000e+00, -1.68175563e+00, 6.65026425e-01, 4.85133804e-01, 3.74369271e+00, 0.00000000e+00, -1.0651302202, 3.8629678447, 5.0000000000, 3.1901951259, 0.9907635729
         660, 7.12386199e-01, 2.93796422e-02, 0.00000000e+00, 0.00000000e+00, 0.00000000e+00, 9.40525516e-02, 6.42198210e-04, 7.12991478e-01, 0.00000000e+00, 2.42476132e+01, 2.31000000e+00, 0.00000000e+00, -1.01593327e+03, 4.43959555e+03, 0.00000000e+00, -1.73715118e+00, 5.99429541e-01, 4.71602702e-01, 3.67137731e+00, 0.00000000e+00, -1.0207880902, 3.8464448644, 6.0000000000, 3.4120110229, 1.0059290012
         670, 7.19145838e-01, 2.98357793e-02, 0.00000000e+00, 0.00000000e+00, 0.00000000e+00, 9.77182296e-02, 8.25509362e-04, 7.19764009e-01, 0.00000000e+00, 2.41034709e+01, 2.31000000e+00, 0.00000000e+00, -9.46417222e+02, 4.42958982e+03, 0.00000000e+00, -1.75952157e+00, 5.35593874e-01, 5.36518008e-01, 3.62890821e+00, 0.00000000e+00, -0.9841935977, 3.8100559563, 6.0000000000, 3.5117107988, 1.0212443193
         680, 7.24692304e-01, 2.90815652e-02, 0.00000000e+00, 0.00000000e+00, 0.00000000e+00, 1.00673224e-01, -1.51648703e-04, 7.25275568e-01, 0.00000000e+00, 2.49193019e+01, 2.31000000e+00, 0.00000000e+00, -8.77635067e+02, 4.40586786e+03, 0.00000000e+00, -1.77820206e+00, 4.92835592e-01, 5.70124729e-01, 3.60661997e+00, 0.00000000e+00, -0.9531678714, 3.7939170994, 6.0000000000, 3.5815323191, 1.0363108397
         690, 7.25502152e-01, 2.73155575e-02, 0.00000000e+00, 0.00000000e+00, 0.00000000e+00, 1.00926166e-01, -1.94886314e-03, 7.26013577e-01, 0.00000000e+00, 2.65600345e+01, 2.31000000e+00, 0.00000000e+00, -8.12479114e+02, 4.40139167e+03, 0.00000000e+00, -1.83022032e+00, 4.54448822e-01, 5.40511556e-01, 3.56069083e+00, 0.00000000e+00, -0.9225952039, 3.7728534600, 7.0000000000, 3.7833149244, 1.0516599019
         700, 7.19389959e-01, 2.50083288e-02, 0.00000000e+00, 0.00000000e+00, 0.00000000e+00, 9.71017415e-02, -4.00785781e-03, 7.19813356e-01, 0.00000000e+00, 2.87660149e+01, 2.31000000e+00, 0.00000000e+00, -7.64449780e+02, 4.43900047e+03, 0.00000000e+00, -1.92755915e+00, 3.86309650e-01, 4.40887655e-01, 3.46514418e+00, 0.00000000e+00, -0.8819320676, 3.7583888023, 8.0000000000, 4.2135178278, 1.0689880133
         710, 7.06730074e-01, 2.28041654e-02, 0.00000000e+00, 0.00000000e+00, 0.00000000e+00, 8.94180493e-02, -5.69995838e-03, 7.07074916e-01, 0.00000000e+00, 3.09912712e+01, 2.31000000e+00, 0.00000000e+00, -7.40690146e+02, 4.53077254e+03, 0.00000000e+00, -2.01702475e+00, 2.75832948e-01, 2.94963967e-01, 3.36868001e+00, 0.00000000e+00, -0.8391579203, 3.7397864205, 8.0000000000, 4.7028669683, 1.0854742805