TITLE = "SU2 Simulation"
VARIABLES = "Iteration","CL","CD","CSF","CMx","CMy","CMz","CFx","CFy","CFz","CL/CD","AoA","Custom_ObjFunc","HeatFlux_Total","HeatFlux_Maximum","Temperature_Total","Res_Flow[0]","Res_Flow[1]","Res_Flow[2]","Res_Flow[3]","Res_Flow[4]","Res_Turb[0]","Res_Turb[1]","Linear_Solver_Iterations","CFL_Number","Time(min)"
ZONE T= "Convergence history"
           0, 1.24720502e-02, 7.18380819e-02, 0.00000000e+00, 0.00000000e+00, 0.00000000e+00, 5.33444431e-03, 7.12770038e-02, 1.53574341e-02, 0.00000000e+00, 1.73613353e-01, 2.31000000e+00, 0.00000000e+00, -2.19431266e+05, 2.13060442e+05, 0.00000000e+00, -1.70011403e+00, -1.08191043e+01, -1.11006603e+01, 3.80541079e+00, 0.00000000e+00, -0.0606992188, 5.7005555116, 2.0000000000, 2.5000000000, 0.0014911135
          10, 1.98551475e-01, 2.29672707e-01, 0.00000000e+00, 0.00000000e+00, 0.00000000e+00, 7.48053832e-02, 2.21483217e-01, 2.07647358e-01, 0.00000000e+00, 8.64497475e-01, 2.31000000e+00, 0.00000000e+00, -6.34191240e+04, 7.58669850e+04, 0.00000000e+00, -2.16799297e+00, 2.68490304e-01, 3.44574417e-01, 3.34140442e+00, 0.00000000e+00, -0.3263297330, 5.1306011830, 6.0000000000, 2.5000000000, 0.0168502847
          20, 1.98660621e-01, 2.19565901e-01, 0.00000000e+00, 0.00000000e+00, 0.00000000e+00, 7.48606200e-02, 2.11380225e-01, 2.07349048e-01, 0.00000000e+00, 9.04788129e-01, 2.31000000e+00, 0.00000000e+00, -4.40292237e+04, 5.15396858e+04, 0.00000000e+00, -2.14111815e+00, 2.37339374e-01, 3.72822905e-01, 3.36418534e+00, 0.00000000e+00, -0.5102433497, 4.8022766097, 5.0000000000, 2.5000000000, 0.0334262888
          30, 1.96372978e-01, 2.03375279e-01, 0.00000000e+00, 0.00000000e+00, 0.00000000e+00, 7.42290944e-02, 1.95294966e-01, 2.04410682e-01, 0.00000000e+00, 9.65569557e-01, 2.31000000e+00, 0.00000000e+00, -3.37140205e+04, 3.80478074e+04, 0.00000000e+00, -2.09116928e+00, 2.69127849e-01, 4.14423839e-01, 3.40390583e+00, 0.00000000e+00, -0.6536330245, 4.5994853777, 5.0000000000, 2.5000000000, 0.0485726754
          40, 1.92584580e-01, 1.81524387e-01, 0.00000000e+00, 0.00000000e+00, 0.00000000e+00, 7.40167335e-02, 1.73614527e-01, 1.99744637e-01, 0.00000000e+00, 1.06092952e+00, 2.31000000e+00, 0.00000000e+00, -2.72644218e+04, 2.91748370e+04, 0.00000000e+00, -2.06632104e+00, 3.01113528e-01, 4.21935978e-01, 3.41950091e+00, 0.00000000e+00, -0.7718798720, 4.4674393967, 5.0000000000, 2.5000000000, 0.0640008767
          50, 1.89710386e-01, 1.58689895e-01, 0.00000000e+00, 0.00000000e+00, 0.00000000e+00, 7.55981486e-02, 1.50914438e-01, 1.95952407e-01, 0.00000000e+00, 1.19547868e+00, 2.31000000e+00, 0.00000000e+00, -2.27532127e+04, 2.32868420e+04, 0.00000000e+00, -2.03920615e+00, 3.55707738e-01, 4.36239585e-01, 3.43884925e+00, 0.00000000e+00, -0.8726966775, 4.3704925549, 5.0000000000, 2.5000000000, 0.0792907596
          60, 1.88756229e-01, 1.38709803e-01, 0.00000000e+00, 0.00000000e+00, 0.00000000e+00, 7.89437739e-02, 1.30989041e-01, 1.94193704e-01, 0.00000000e+00, 1.36079949e+00, 2.31000000e+00, 0.00000000e+00, -1.94061508e+04, 1.91752759e+04, 0.00000000e+00, -2.01150092e+00, 4.00374778e-01, 4.45858488e-01, 3.45791531e+00, 0.00000000e+00, -0.9605850804, 4.2888689600, 5.0000000000, 2.5000000000, 0.0946614305
          70, 1.89877332e-01, 1.23575570e-01, 0.00000000e+00, 0.00000000e+00, 0.00000000e+00, 8.36106582e-02, 1.15821919e-01, 1.94703893e-01, 0.00000000e+00, 1.53652807e+00, 2.31000000e+00, 0.00000000e+00, -1.68125993e+04, 1.61943485e+04, 0.00000000e+00, -1.97882617e+00, 4.29419208e-01, 4.49276462e-01, 3.48225389e+00, 0.00000000e+00, -1.0383879127, 4.1959673645, 5.0000000000, 2.5000000000, 0.1098452608
          80, 1.92402233e-01, 1.13143482e-01, 0.00000000e+00, 0.00000000e+00, 0.00000000e+00, 8.88408846e-02, 1.05296539e-01, 1.96806265e-01, 0.00000000e+00, 1.70051540e+00, 2.31000000e+00, 0.00000000e+00, -1.47083449e+04, 1.41958322e+04, 0.00000000e+00, -1.94008423e+00, 4.55111307e-01, 4.47425343e-01, 3.51561830e+00, 0.00000000e+00, -1.1081785612, 4.1504310951, 5.0000000000, 2.5000000000, 0.1253116131
          90, 1.94500092e-01, 1.06480192e-01, 0.00000000e+00, 0.00000000e+00, 0.00000000e+00, 9.31611961e-02, 9.85541067e-02, 1.98633847e-01, 0.00000000e+00, 1.82663169e+00, 2.31000000e+00, 0.00000000e+00, -1.29106901e+04, 1.28833570e+04, 0.00000000e+00, -1.89483283e+00, 4.90265812e-01, 4.59873828e-01, 3.55806402e+00, 0.00000000e+00, -1.1715081067, 4.1489079240, 5.0000000000, 2.5000000000, 0.1404642224
         100, 1.95511136e-01, 1.02634872e-01, 0.00000000e+00, 0.00000000e+00, 0.00000000e+00, 9.54297994e-02, 9.46711601e-02, 1.99489078e-01, 0.00000000e+00, 1.90491918e+00, 2.31000000e+00, 0.00000000e+00, -1.13100849e+04, 1.18391726e+04, 0.00000000e+00, -1.85290548e+00, 5.29936136e-01, 4.92712414e-01, 3.59893771e+00, 0.00000000e+00, -1.2294550444, 4.1027811556, 5.0000000000, 2.5000000000, 0.1555452267
         110, 1.97638594e-01, 1.01295358e-01, 0.00000000e+00, 0.00000000e+00, 0.00000000e+00, 9.54761146e-02, 9.32469852e-02, 2.01560817e-01, 0.00000000e+00, 1.95111205e+00, 2.31000000e+00, 0.00000000e+00, -9.88547015e+03, 1.08161363e+04, 0.00000000e+00, -1.81644234e+00, 5.65231997e-01, 5.29945356e-01, 3.63491598e+00, 0.00000000e+00, -1.2828401009, 4.0794901642, 5.0000000000, 2.5000000000, 0.1709953507
         120, 2.01726312e-01, 1.02988390e-01, 0.00000000e+00, 0.00000000e+00, 0.00000000e+00, 9.40143353e-02, 9.47738810e-02, 2.05713453e-01, 0.00000000e+00, 1.95872867e+00, 2.31000000e+00, 0.00000000e+00, -8.66660331e+03, 9.89576249e+03, 0.00000000e+00, -1.78325256e+00, 5.96051049e-01, 5.61705635e-01, 3.66616529e+00, 0.00000000e+00, -1.3330004786, 4.0627953062, 5.0000000000, 2.5000000000, 0.1861659288
         130, 2.05157684e-01, 1.07545423e-01, 0.00000000e+00, 0.00000000e+00, 0.00000000e+00, 9.28963260e-02, 9.91889055e-02, 2.09325713e-01, 0.00000000e+00, 1.90763752e+00, 2.31000000e+00, 0.00000000e+00, -7.65237907e+03, 9.22711160e+03, 0.00000000e+00, -1.75485366e+00, 6.19907638e-01, 5.88944504e-01, 3.69107201e+00, 0.00000000e+00, -1.3828863790, 4.0554174933, 5.0000000000, 2.5000000000, 0.2015462041
         140, 2.06981907e-01, 1.12510652e-01, 0.00000000e+00, 0.00000000e+00, 0.00000000e+00, 9.40167462e-02, 1.04076572e-01, 2.11348584e-01, 0.00000000e+00, 1.83966498e+00, 2.31000000e+00, 0.00000000e+00, -6.79715869e+03, 8.71072814e+03, 0.00000000e+00, -1.73111990e+00, 6.21113866e-01, 6.05114852e-01, 3.70822142e+00, 0.00000000e+00, -1.4347883543, 4.0620072270, 5.0000000000, 2.5000000000, 0.2166480939
         150, 2.12287802e-01, 1.14728523e-01, 0.00000000e+00, 0.00000000e+00, 0.00000000e+00, 9.76663249e-02, 1.06078780e-01, 2.16739560e-01, 0.00000000e+00, 1.85034895e+00, 2.31000000e+00, 0.00000000e+00, -6.06159678e+03, 8.21052340e+03, 0.00000000e+00, -1.71093179e+00, 6.18571382e-01, 6.12159752e-01, 3.72308467e+00, 0.00000000e+00, -1.4847050591, 4.0575909607, 5.0000000000, 2.5000000000, 0.2322465539
         160, 2.26902028e-01, 1.13694524e-01, 0.00000000e+00, 0.00000000e+00, 0.00000000e+00, 1.03068050e-01, 1.04456578e-01, 2.31300235e-01, 0.00000000e+00, 1.99571642e+00, 2.31000000e+00, 0.00000000e+00, -5.43791751e+03, 7.68895445e+03, 0.00000000e+00, -1.69334630e+00, 6.42393021e-01, 6.26982354e-01, 3.73844273e+00, 0.00000000e+00, -1.5274921789, 4.0452176846, 5.0000000000, 2.5000000000, 0.2474428773
         170, 2.48317624e-01, 1.10479505e-01, 0.00000000e+00, 0.00000000e+00, 0.00000000e+00, 1.10300531e-01, 1.00380990e-01, 2.52568842e-01, 0.00000000e+00, 2.24763520e+00, 2.31000000e+00, 0.00000000e+00, -4.92522648e+03, 7.25291993e+03, 0.00000000e+00, -1.68412643e+00, 6.27513354e-01, 6.26946582e-01, 3.73820959e+00, 0.00000000e+00, -1.5658589344, 4.0225551266, 5.0000000000, 2.5000000000, 0.2629653533
         180, 2.71135715e-01, 1.05792772e-01, 0.00000000e+00, 0.00000000e+00, 0.00000000e+00, 1.19669456e-01, 9.47783558e-02, 2.75179486e-01, 0.00000000e+00, 2.56289452e+00, 2.31000000e+00, 0.00000000e+00, -4.50881334e+03, 6.89665592e+03, 0.00000000e+00, -1.67820990e+00, 5.82907428e-01, 5.98300379e-01, 3.73283259e+00, 0.00000000e+00, -1.6023108433, 3.9760070624, 5.0000000000, 2.5000000000, 0.2780661186
         190, 2.93787385e-01, 9.99391231e-02, 0.00000000e+00, 0.00000000e+00, 0.00000000e+00, 1.30512852e-01, 8.80164617e-02, 2.97576811e-01, 0.00000000e+00, 2.93966343e+00, 2.31000000e+00, 0.00000000e+00, -4.16600212e+03, 6.55948779e+03, 0.00000000e+00, -1.67328505e+00, 5.58680856e-01, 5.63555197e-01, 3.73161861e+00, 0.00000000e+00, -1.6339020369, 3.9434599833, 5.0000000000, 2.5000000000, 0.2936246037
         200, 3.16535904e-01, 9.32661541e-02, 0.00000000e+00, 0.00000000e+00, 0.00000000e+00, 1.41439388e-01, 8.04320093e-02, 3.20037882e-01, 0.00000000e+00, 3.39389896e+00, 2.31000000e+00, 0.00000000e+00, -3.86451928e+03, 6.27269647e+03, 0.00000000e+00, -1.66886920e+00, 5.55640287e-01, 5.35112676e-01, 3.73344140e+00, 0.00000000e+00, -1.6553117137, 3.9296396724, 5.0000000000, 2.5000000000, 0.3088609020
         210, 3.38653059e-01, 8.61893657e-02, 0.00000000e+00, 0.00000000e+00, 0.00000000e+00, 1.51211164e-01, 7.24695135e-02, 3.41851825e-01, 0.00000000e+00, 3.92917451e+00, 2.31000000e+00, 0.00000000e+00, -3.58174620e+03, 6.13217884e+03, 0.00000000e+00, -1.66562792e+00, 5.59885816e-01, 5.16862389e-01, 3.73556382e+00, 0.00000000e+00, -1.6619783579, 3.9155325082, 5.0000000000, 2.5000000000, 0.3239785830
         220, 3.58448288e-01, 7.92834799e-02, 0.00000000e+00, 0.00000000e+00, 0.00000000e+00, 1.59140911e-01, 6.47713695e-02, 3.61352619e-01, 0.00000000e+00, 4.52109681e+00, 2.31000000e+00, 0.00000000e+00, -3.31176760e+03, 6.13876974e+03, 0.00000000e+00, -1.66225766e+00, 5.68213874e-01, 5.10387596e-01, 3.73822715e+00, 0.00000000e+00, -1.6535837788, 3.9378615155, 5.0000000000, 2.5000000000, 0.3392707109
         230, 3.74296893e-01, 7.33794758e-02, 0.00000000e+00, 0.00000000e+00, 0.00000000e+00, 1.64704777e-01, 5.82333664e-02, 3.76950377e-01, 0.00000000e+00, 5.10083901e+00, 2.31000000e+00, 0.00000000e+00, -3.05725736e+03, 6.16556675e+03, 0.00000000e+00, -1.66114949e+00, 5.75758098e-01, 5.07157308e-01, 3.73895770e+00, 0.00000000e+00, -1.6350068403, 3.9636371336, 5.0000000000, 2.5000000000, 0.3544417302
         240, 3.85344035e-01, 6.89464655e-02, 0.00000000e+00, 0.00000000e+00, 0.00000000e+00, 1.67529830e-01, 5.33586903e-02, 3.87809864e-01, 0.00000000e+00, 5.58903247e+00, 2.31000000e+00, 0.00000000e+00, -2.81919260e+03, 6.08470834e+03, 0.00000000e+00, -1.66121499e+00, 5.70407357e-01, 4.95329029e-01, 3.73719681e+00, 0.00000000e+00, -1.6129310200, 3.9783880611, 5.0000000000, 2.5000000000, 0.3699831009
         250, 3.92652898e-01, 6.55588680e-02, 0.00000000e+00, 0.00000000e+00, 0.00000000e+00, 1.67958385e-01, 4.96792533e-02, 3.94976246e-01, 0.00000000e+00, 5.98931783e+00, 2.31000000e+00, 0.00000000e+00, -2.60169472e+03, 5.90407363e+03, 0.00000000e+00, -1.66097463e+00, 5.49006881e-01, 4.78638406e-01, 3.73542664e+00, 0.00000000e+00, -1.5992099264, 3.9767722144, 5.0000000000, 2.5000000000, 0.3851769129
         260, 3.99270207e-01, 6.23726546e-02, 0.00000000e+00, 0.00000000e+00, 0.00000000e+00, 1.67198181e-01, 4.62289106e-02, 4.01459754e-01, 0.00000000e+00, 6.40136626e+00, 2.31000000e+00, 0.00000000e+00, -2.41211446e+03, 5.71021396e+03, 0.00000000e+00, -1.66178096e+00, 5.23755412e-01, 4.72958278e-01, 3.73361578e+00, 0.00000000e+00, -1.5926471996, 3.9734209896, 5.0000000000, 2.5000000000, 0.4005989591
         270, 4.08528570e-01, 5.89093298e-02, 0.00000000e+00, 0.00000000e+00, 0.00000000e+00, 1.66857884e-01, 4.23952308e-02, 4.10571000e-01, 0.00000000e+00, 6.93487045e+00, 2.31000000e+00, 0.00000000e+00, -2.25328785e+03, 5.53528272e+03, 0.00000000e+00, -1.66333686e+00, 5.01833078e-01, 4.78391113e-01, 3.73138848e+00, 0.00000000e+00, -1.5855172909, 3.9869050598, 5.0000000000, 2.5000000000, 0.4156919320
         280, 4.22489561e-01, 5.51656365e-02, 0.00000000e+00, 0.00000000e+00, 0.00000000e+00, 1.68145570e-01, 3.80918654e-02, 4.24369752e-01, 0.00000000e+00, 7.65856407e+00, 2.31000000e+00, 0.00000000e+00, -2.12865307e+03, 5.35993227e+03, 0.00000000e+00, -1.66460858e+00, 4.86595814e-01, 4.80205602e-01, 3.72945112e+00, 0.00000000e+00, -1.5765682585, 4.0173564357, 5.0000000000, 2.5000000000, 0.4308761199
         290, 4.41362201e-01, 5.12008228e-02, 0.00000000e+00, 0.00000000e+00, 0.00000000e+00, 1.71198971e-01, 3.33695895e-02, 4.43067249e-01, 0.00000000e+00, 8.62021696e+00, 2.31000000e+00, 0.00000000e+00, -2.03896398e+03, 5.25057756e+03, 0.00000000e+00, -1.66502505e+00, 4.88722604e-01, 4.76826021e-01, 3.72922112e+00, 0.00000000e+00, -1.5689988775, 4.0336343048, 5.0000000000, 2.5000000000, 0.4453663548
         300, 4.63470626e-01, 4.69766344e-02, 0.00000000e+00, 0.00000000e+00, 0.00000000e+00, 1.74990865e-01, 2.82577276e-02, 4.64987447e-01, 0.00000000e+00, 9.86598192e+00, 2.31000000e+00, 0.00000000e+00, -1.98098684e+03, 5.25673979e+03, 0.00000000e+00, -1.66284322e+00, 5.05299999e-01, 4.74372610e-01, 3.73301352e+00, 0.00000000e+00, -1.5605303143, 4.0370949942, 5.0000000000, 2.5000000000, 0.4602238496
         310, 4.85903389e-01, 4.25489250e-02, 0.00000000e+00, 0.00000000e+00, 0.00000000e+00, 1.77940385e-01, 2.29294372e-02, 4.87223517e-01, 0.00000000e+00, 1.14198746e+01, 2.31000000e+00, 0.00000000e+00, -1.95768089e+03, 5.33489144e+03, 0.00000000e+00, -1.65948021e+00, 5.20284806e-01, 4.74689349e-01, 3.73881903e+00, 0.00000000e+00, -1.5528100703, 4.0212763105, 5.0000000000, 2.5000000000, 0.4747591456
         320, 5.05719043e-01, 3.82686294e-02, 0.00000000e+00, 0.00000000e+00, 0.00000000e+00, 1.78748378e-01, 1.78539265e-02, 5.06850546e-01, 0.00000000e+00, 1.32149766e+01, 2.31000000e+00, 0.00000000e+00, -1.95663999e+03, 5.40282403e+03, 0.00000000e+00, -1.65518864e+00, 5.25739948e-01, 4.75433439e-01, 3.74520135e+00, 0.00000000e+00, -1.5470277130, 4.0103725590, 5.0000000000, 2.5000000000, 0.4892362634
         330, 5.20832963e-01, 3.47025993e-02, 0.00000000e+00, 0.00000000e+00, 0.00000000e+00, 1.76885220e-01, 1.36816098e-02, 5.21808450e-01, 0.00000000e+00, 1.50084712e+01, 2.31000000e+00, 0.00000000e+00, -1.96949867e+03, 5.47012346e+03, 0.00000000e+00, -1.65012686e+00, 5.26008523e-01, 4.80707345e-01, 3.75106507e+00, 0.00000000e+00, -1.5455587813, 4.0195693175, 5.0000000000, 2.5000000000, 0.5040150444
         340, 5.30304079e-01, 3.23609040e-02, 0.00000000e+00, 0.00000000e+00, 0.00000000e+00, 1.72701239e-01, 1.09600728e-02, 5.31177486e-01, 0.00000000e+00, 1.63871837e+01, 2.31000000e+00, 0.00000000e+00, -1.97742575e+03, 5.50037470e+03, 0.00000000e+00, -1.64721434e+00, 5.28605480e-01, 5.03780240e-01, 3.75267589e+00, 0.00000000e+00, -1.5499045707, 3.9889825414, 5.0000000000, 2.5000000000, 0.5184481343
         350, 5.34339399e-01, 3.13689454e-02, 0.00000000e+00, 0.00000000e+00, 0.00000000e+00, 1.67267712e-01, 9.80627198e-03, 5.35169544e-01, 0.00000000e+00, 1.70340250e+01, 2.31000000e+00, 0.00000000e+00, -1.98102111e+03, 5.49024669e+03, 0.00000000e+00, -1.64751171e+00, 5.36369513e-01, 5.39560277e-01, 3.74939569e+00, 0.00000000e+00, -1.5538920652, 4.0003079616, 5.0000000000, 2.5000000000, 0.5332129558
         360, 5.34438437e-01, 3.13152125e-02, 0.00000000e+00, 0.00000000e+00, 0.00000000e+00, 1.62112280e-01, 9.74859087e-03, 5.35266336e-01, 0.00000000e+00, 1.70664158e+01, 2.31000000e+00, 0.00000000e+00, -1.95101954e+03, 5.42021547e+03, 0.00000000e+00, -1.64545048e+00, 5.45040949e-01, 5.60232603e-01, 3.74916373e+00, 0.00000000e+00, -1.5523374391, 3.9813575913, 5.0000000000, 2.5000000000, 0.5476011634
         370, 5.33360872e-01, 3.14327057e-02, 0.00000000e+00, 0.00000000e+00, 0.00000000e+00, 1.58716371e-01, 9.90942119e-03, 5.34194382e-01, 0.00000000e+00, 1.69683411e+01, 2.31000000e+00, 0.00000000e+00, -1.91206796e+03, 5.27441311e+03, 0.00000000e+00, -1.63601681e+00, 5.44694407e-01, 5.47313055e-01, 3.75853617e+00, 0.00000000e+00, -1.5433179588, 4.0224972334, 5.0000000000, 2.5000000000, 0.5622003158
         380, 5.34355930e-01, 3.09329771e-02, 0.00000000e+00, 0.00000000e+00, 0.00000000e+00, 1.57846636e-01, 9.36999169e-03, 5.35168489e-01, 0.00000000e+00, 1.72746363e+01, 2.31000000e+00, 0.00000000e+00, -1.82373834e+03, 5.13500828e+03, 0.00000000e+00, -1.62164858e+00, 5.32718694e-01, 5.12568293e-01, 3.77402983e+00, 0.00000000e+00, -1.5303602055, 4.0282122213, 5.0000000000, 2.5000000000, 0.5764872154
         390, 5.39818132e-01, 2.94507928e-02, 0.00000000e+00, 0.00000000e+00, 0.00000000e+00, 1.59296557e-01, 7.66885130e-03, 5.40566512e-01, 0.00000000e+00, 1.83294941e+01, 2.31000000e+00, 0.00000000e+00, -1.74227172e+03, 5.04160005e+03, 0.00000000e+00, -1.60890650e+00, 5.26754841e-01, 5.05235032e-01, 3.78839235e+00, 0.00000000e+00, -1.5185220376, 4.0652853394, 6.0000000000, 2.5000000000, 0.5916599949
         400, 5.50376919e-01, 2.71366464e-02, 0.00000000e+00, 0.00000000e+00, 0.00000000e+00, 1.62204394e-01, 4.93100107e-03, 5.51023444e-01, 0.00000000e+00, 2.02816851e+01, 2.31000000e+00, 0.00000000e+00, -1.62240617e+03, 4.91347747e+03, 0.00000000e+00, -1.60044285e+00, 5.43421055e-01, 5.49781520e-01, 3.79863332e+00, 0.00000000e+00, -1.5120524197, 4.0844368235, 6.0000000000, 2.5000000000, 0.6067021767
         410, 5.65088765e-01, 2.44581351e-02, 0.00000000e+00, 0.00000000e+00, 0.00000000e+00, 1.65565272e-01, 1.66168798e-03, 5.65615374e-01, 0.00000000e+00, 2.31043275e+01, 2.31000000e+00, 0.00000000e+00, -1.51866190e+03, 4.85456448e+03, 0.00000000e+00, -1.59431956e+00, 5.67381892e-01, 5.96637040e-01, 3.80510429e+00, 0.00000000e+00, -1.5112990428, 4.0993877199, 6.0000000000, 2.5000000000, 0.6217434367
         420, 5.82007181e-01, 2.19679858e-02, 0.00000000e+00, 0.00000000e+00, 0.00000000e+00, 1.68519696e-01, -1.50835462e-03, 5.82419673e-01, 0.00000000e+00, 2.64934249e+01, 2.31000000e+00, 0.00000000e+00, -1.43266290e+03, 4.66623747e+03, 0.00000000e+00, -1.58751032e+00, 5.79960484e-01, 6.03407803e-01, 3.81023396e+00, 0.00000000e+00, -1.5145351761, 4.0860232059, 6.0000000000, 2.5000000000, 0.6371024172
         430, 5.99424319e-01, 1.99595230e-02, 0.00000000e+00, 0.00000000e+00, 0.00000000e+00, 1.70507584e-01, -4.21720367e-03, 5.99741704e-01, 0.00000000e+00, 3.00319963e+01, 2.31000000e+00, 0.00000000e+00, -1.36610788e+03, 4.61940705e+03, 0.00000000e+00, -1.57824929e+00, 5.93740382e-01, 5.65352114e-01, 3.81869420e+00, 0.00000000e+00, -1.5236533486, 4.1218478217, 6.0000000000, 2.5000000000, 0.6523765643
         440, 6.15903394e-01, 1.85684284e-02, 0.00000000e+00, 0.00000000e+00, 0.00000000e+00, 1.71204052e-01, -6.27137638e-03, 6.16151318e-01, 0.00000000e+00, 3.31693873e+01, 2.31000000e+00, 0.00000000e+00, -1.35307292e+03, 4.63728694e+03, 0.00000000e+00, -1.56783034e+00, 6.29419846e-01, 5.20995057e-01, 3.83198877e+00, 0.00000000e+00, -1.5316698066, 4.1193633479, 6.0000000000, 2.5000000000, 0.6681386073
         450, 6.30727472e-01, 1.77281065e-02, 0.00000000e+00, 0.00000000e+00, 0.00000000e+00, 1.70487873e-01, -7.70851748e-03, 6.30929480e-01, 0.00000000e+00, 3.55778251e+01, 2.31000000e+00, 0.00000000e+00, -1.32410521e+03, 4.84440130e+03, 0.00000000e+00, -1.55944008e+00, 6.68996527e-01, 5.35433791e-01, 3.84435549e+00, 0.00000000e+00, -1.5410401452, 4.1454981772, 5.0000000000, 2.5000000000, 0.6831569433
         460, 6.43376703e-01, 1.73196807e-02, 0.00000000e+00, 0.00000000e+00, 0.00000000e+00, 1.68263898e-01, -8.62645361e-03, 6.43551970e-01, 0.00000000e+00, 3.71471457e+01, 2.31000000e+00, 0.00000000e+00, -1.33873420e+03, 4.65649984e+03, 0.00000000e+00, -1.55462362e+00, 6.78665394e-01, 5.88939767e-01, 3.84900943e+00, 0.00000000e+00, -1.5515362363, 4.1605417212, 5.0000000000, 2.5000000000, 0.6980741938
         470, 6.53930515e-01, 1.73144980e-02, 0.00000000e+00, 0.00000000e+00, 0.00000000e+00, 1.64701022e-01, -9.05701596e-03, 6.54096996e-01, 0.00000000e+00, 3.77678009e+01, 2.31000000e+00, 0.00000000e+00, -1.34191285e+03, 4.79523166e+03, 0.00000000e+00, -1.55149347e+00, 6.44443688e-01, 6.20232502e-01, 3.84658051e+00, 0.00000000e+00, -1.5633769179, 4.1236636781, 5.0000000000, 2.5000000000, 0.7126840115
         480, 6.62564957e-01, 1.76393302e-02, 0.00000000e+00, 0.00000000e+00, 0.00000000e+00, 1.60045356e-01, -9.08046923e-03, 6.62737515e-01, 0.00000000e+00, 3.75617980e+01, 2.31000000e+00, 0.00000000e+00, -1.34463272e+03, 4.43249809e+03, 0.00000000e+00, -1.54692082e+00, 5.76955802e-01, 6.13798341e-01, 3.84418650e+00, 0.00000000e+00, -1.5718975684, 4.1749197005, 5.0000000000, 2.5000000000, 0.7275410493
         490, 6.69388593e-01, 1.81477754e-02, 0.00000000e+00, 0.00000000e+00, 0.00000000e+00, 1.54684592e-01, -8.84747188e-03, 6.69576099e-01, 0.00000000e+00, 3.68854351e+01, 2.31000000e+00, 0.00000000e+00, -1.34829379e+03, 4.19268959e+03, 0.00000000e+00, -1.53955867e+00, 5.12928910e-01, 5.85323105e-01, 3.84772528e+00, 0.00000000e+00, -1.5717701130, 4.1131347784, 5.0000000000, 2.5000000000, 0.7423695842
         500, 6.75040365e-01, 1.87267508e-02, 0.00000000e+00, 0.00000000e+00, 0.00000000e+00, 1.49285672e-01, -8.49676839e-03, 6.75246615e-01, 0.00000000e+00, 3.60468495e+01, 2.31000000e+00, 0.00000000e+00, -1.36048403e+03, 4.03618727e+03, 0.00000000e+00, -1.53062564e+00, 4.92942741e-01, 5.63501823e-01, 3.85649775e+00, 0.00000000e+00, -1.5632497178, 4.1536252412, 5.0000000000, 2.5000000000, 0.7570120017
         510, 6.80183756e-01, 1.92042630e-02, 0.00000000e+00, 0.00000000e+00, 0.00000000e+00, 1.44452303e-01, -8.22695464e-03, 6.80405072e-01, 0.00000000e+00, 3.54183733e+01, 2.31000000e+00, 0.00000000e+00, -1.38102596e+03, 3.74256209e+03, 0.00000000e+00, -1.52207335e+00, 5.07851035e-01, 5.66007101e-01, 3.86599801e+00, 0.00000000e+00, -1.5489478280, 4.1160873684, 5.0000000000, 2.5000000000, 0.7722774307
         520, 6.85311100e-01, 1.94506431e-02, 0.00000000e+00, 0.00000000e+00, 0.00000000e+00, 1.40514304e-01, -8.18743848e-03, 6.85538181e-01, 0.00000000e+00, 3.52333390e+01, 2.31000000e+00, 0.00000000e+00, -1.37718165e+03, 3.78545602e+03, 0.00000000e+00, -1.51469603e+00, 5.26322799e-01, 5.84172014e-01, 3.87340236e+00, 0.00000000e+00, -1.5341455963, 4.1352359576, 5.0000000000, 2.5000000000, 0.7868949930
         530, 6.91006739e-01, 1.95150953e-02, 0.00000000e+00, 0.00000000e+00, 0.00000000e+00, 1.37553754e-01, -8.35260807e-03, 6.91231789e-01, 0.00000000e+00, 3.54088324e+01, 2.31000000e+00, 0.00000000e+00, -1.38249215e+03, 3.54165771e+03, 0.00000000e+00, -1.50782027e+00, 5.38358289e-01, 6.03675426e-01, 3.87924837e+00, 0.00000000e+00, -1.5231468574, 4.0832216720, 5.0000000000, 2.5000000000, 0.8018812180
         540, 6.97053589e-01, 1.94518738e-02, 0.00000000e+00, 0.00000000e+00, 0.00000000e+00, 1.35183845e-01, -8.65950362e-03, 6.97271177e-01, 0.00000000e+00, 3.58347784e+01, 2.31000000e+00, 0.00000000e+00, -1.36999538e+03, 3.53008637e+03, 0.00000000e+00, -1.50041113e+00, 5.47517614e-01, 6.21204758e-01, 3.88540886e+00, 0.00000000e+00, -1.5184465410, 4.0971707142, 5.0000000000, 2.5000000000, 0.8166209261
         550, 7.02824375e-01, 1.93688558e-02, 0.00000000e+00, 0.00000000e+00, 0.00000000e+00, 1.32870239e-01, -8.97505258e-03, 7.03033927e-01, 0.00000000e+00, 3.62863136e+01, 2.31000000e+00, 0.00000000e+00, -1.34937655e+03, 3.46472225e+03, 0.00000000e+00, -1.49229376e+00, 5.57200382e-01, 6.40383242e-01, 3.89252144e+00, 0.00000000e+00, -1.5188586276, 4.0784205371, 5.0000000000, 2.5000000000, 0.8321654359
         560, 7.07803944e-01, 1.93970700e-02, 0.00000000e+00, 0.00000000e+00, 0.00000000e+00, 1.30209532e-01, -9.14756870e-03, 7.08010587e-01, 0.00000000e+00, 3.64902505e+01, 2.31000000e+00, 0.00000000e+00, -1.30755708e+03, 3.43159446e+03, 0.00000000e+00, -1.48412474e+00, 5.66800353e-01, 6.62664273e-01, 3.89979505e+00, 0.00000000e+00, -1.5160486528, 4.0584878113, 5.0000000000, 2.5000000000, 0.8477948944
         570, 7.11792542e-01, 1.96545541e-02, 0.00000000e+00, 0.00000000e+00, 0.00000000e+00, 1.27048059e-01, -9.05105902e-03, 7.12006322e-01, 0.00000000e+00, 3.62151458e+01, 2.31000000e+00, 0.00000000e+00, -1.27161269e+03, 3.45428014e+03, 0.00000000e+00, -1.47670132e+00, 5.77028881e-01, 6.85356898e-01, 3.90633681e+00, 0.00000000e+00, -1.5039624107, 4.0379738784, 5.0000000000, 2.5000000000, 0.8646559159
         580, 7.14633463e-01, 2.01422217e-02, 0.00000000e+00, 0.00000000e+00, 0.00000000e+00, 1.23378384e-01, -8.67829443e-03, 7.14864591e-01, 0.00000000e+00, 3.54793764e+01, 2.31000000e+00, 0.00000000e+00, -1.23457256e+03, 3.45647792e+03, 0.00000000e+00, -1.47058011e+00, 5.91575492e-01, 7.05844451e-01, 3.91190511e+00, 0.00000000e+00, -1.4803984864, 4.0256499727, 5.0000000000, 2.5000000000, 0.8809860269
         590, 7.16236218e-01, 2.07733115e-02, 0.00000000e+00, 0.00000000e+00, 0.00000000e+00, 1.19261474e-01, -8.11231837e-03, 7.16491479e-01, 0.00000000e+00, 3.44786732e+01, 2.31000000e+00, 0.00000000e+00, -1.20228680e+03, 3.49118837e+03, 0.00000000e+00, -1.46610658e+00, 6.14281216e-01, 7.24725394e-01, 3.91674396e+00, 0.00000000e+00, -1.4486333929, 4.0135408448, 5.0000000000, 2.5000000000, 0.8975464185
         600, 7.16711491e-01, 2.14742051e-02, 0.00000000e+00, 0.00000000e+00, 0.00000000e+00, 1.14821907e-01, -7.43115083e-03, 7.16994617e-01, 0.00000000e+00, 3.33754609e+01, 2.31000000e+00, 0.00000000e+00, -1.17132507e+03, 3.51821261e+03, 0.00000000e+00, -1.46367752e+00, 6.44920618e-01, 7.44131298e-01, 3.92105410e+00, 0.00000000e+00, -1.4100258355, 3.9916577056, 5.0000000000, 2.5000000000, 0.9134258946
         610, 7.16168391e-01, 2.21752125e-02, 0.00000000e+00, 0.00000000e+00, 0.00000000e+00, 1.10144296e-01, -6.70882274e-03, 7.16480214e-01, 0.00000000e+00, 3.22958975e+01, 2.31000000e+00, 0.00000000e+00, -1.15191081e+03, 3.53742357e+03, 0.00000000e+00, -1.46444945e+00, 6.78990123e-01, 7.62953440e-01, 3.92409231e+00, 0.00000000e+00, -1.3651476619, 3.9714278413, 5.0000000000, 2.5000000000, 0.9312462807
         620, 7.14515996e-01, 2.28378942e-02, 0.00000000e+00, 0.00000000e+00, 0.00000000e+00, 1.05285923e-01, -5.98007783e-03, 7.14855872e-01, 0.00000000e+00, 3.12864220e+01, 2.31000000e+00, 0.00000000e+00, -1.14753722e+03, 3.56498858e+03, 0.00000000e+00, -1.47113833e+00, 7.09842156e-01, 7.74203753e-01, 3.92324613e+00, 0.00000000e+00, -1.3152674934, 3.9403920417, 5.0000000000, 2.5000000000, 0.9467117389
         630, 7.11950387e-01, 2.35028404e-02, 0.00000000e+00, 0.00000000e+00, 0.00000000e+00, 1.00496229e-01, -5.21226208e-03, 7.12319148e-01, 0.00000000e+00, 3.02920998e+01, 2.31000000e+00, 0.00000000e+00, -1.13669015e+03, 3.60116153e+03, 0.00000000e+00, -1.48772585e+00, 7.31406227e-01, 7.67789203e-01, 3.91432124e+00, 0.00000000e+00, -1.2605616657, 3.9333680149, 5.0000000000, 2.5000000000, 0.9616124749
         640, 7.09120116e-01, 2.42951592e-02, 0.00000000e+00, 0.00000000e+00, 0.00000000e+00, 9.62440067e-02, -4.30650966e-03, 7.09523113e-01, 0.00000000e+00, 2.91877122e+01, 2.31000000e+00, 0.00000000e+00, -1.12577776e+03, 3.65032627e+03, 0.00000000e+00, -1.51781713e+00, 7.39467142e-01, 7.34831345e-01, 3.89316697e+00, 0.00000000e+00, -1.2037487061, 3.9094265767, 5.0000000000, 2.5000000000, 0.9762718280
         650, 7.06926712e-01, 2.53246169e-02, 0.00000000e+00, 0.00000000e+00, 0.00000000e+00, 9.30741517e-02, -3.18948085e-03, 7.07372985e-01, 0.00000000e+00, 2.79146064e+01, 2.31000000e+00, 0.00000000e+00, -1.11265698e+03, 3.70936835e+03, 0.00000000e+00, -1.56258474e+00, 7.31810408e-01, 6.70591899e-01, 3.85738631e+00, 0.00000000e+00, -1.1472427119, 3.8893722097, 5.0000000000, 2.5000000000, 0.9920501550
         660, 7.06126814e-01, 2.65828932e-02, 0.00000000e+00, 0.00000000e+00, 0.00000000e+00, 9.13970154e-02, -1.89998613e-03, 7.06624453e-01, 0.00000000e+00, 2.65632039e+01, 2.31000000e+00, 0.00000000e+00, -1.09953932e+03, 3.77129189e+03, 0.00000000e+00, -1.61885298e+00, 7.07941931e-01, 5.79638564e-01, 3.80749552e+00, 0.00000000e+00, -1.0998408335, 3.8664668793, 5.0000000000, 2.5000000000, 1.0075052500
         670, 7.07261233e-01, 2.79201546e-02, 0.00000000e+00, 0.00000000e+00, 0.00000000e+00, 9.13968253e-02, -6.09535530e-04, 7.07811850e-01, 0.00000000e+00, 2.53315658e+01, 2.31000000e+00, 0.00000000e+00, -1.07243673e+03, 3.82486277e+03, 0.00000000e+00, -1.67724690e+00, 6.69316992e-01, 4.91579906e-01, 3.74839361e+00, 0.00000000e+00, -1.0584847851, 3.8474901007, 5.0000000000, 2.5000000000, 1.0220063925
         680, 7.10314352e-01, 2.90713175e-02, 0.00000000e+00, 0.00000000e+00, 0.00000000e+00, 9.28878148e-02, 4.17632229e-04, 7.10908888e-01, 0.00000000e+00, 2.44335109e+01, 2.31000000e+00, 0.00000000e+00, -1.03623753e+03, 3.85892234e+03, 0.00000000e+00, -1.72334954e+00, 6.20475047e-01, 4.64261475e-01, 3.69110683e+00, 0.00000000e+00, -1.0235685961, 3.8435397268, 5.0000000000, 2.5000000000, 1.0367912531
         690, 7.14884346e-01, 2.97863557e-02, 0.00000000e+00, 0.00000000e+00, 0.00000000e+00, 9.54019000e-02, 9.47890464e-04, 7.15503987e-01, 0.00000000e+00, 2.40003964e+01, 2.31000000e+00, 0.00000000e+00, -9.92619158e+02, 3.87003084e+03, 0.00000000e+00, -1.74795712e+00, 5.70088745e-01, 5.02278120e-01, 3.64961640e+00, 0.00000000e+00, -0.9938854751, 3.8148568863, 5.0000000000, 2.5000000000, 1.0512609045
         700, 7.20000923e-01, 2.98914277e-02, 0.00000000e+00, 0.00000000e+00, 0.00000000e+00, 9.82301794e-02, 8.46647360e-04, 7.20620642e-01, 0.00000000e+00, 2.40872042e+01, 2.31000000e+00, 0.00000000e+00, -9.46851598e+02, 3.86412304e+03, 0.00000000e+00, -1.75791111e+00, 5.28582334e-01, 5.49683787e-01, 3.62820890e+00, 0.00000000e+00, -0.9701447808, 3.7834841815, 5.0000000000, 2.5000000000, 1.0660314401
         710, 7.24288284e-01, 2.93508045e-02, 0.00000000e+00, 0.00000000e+00, 0.00000000e+00, 1.00552140e-01, 1.33656260e-04, 7.24882729e-01, 0.00000000e+00, 2.46769483e+01, 2.31000000e+00, 0.00000000e+00, -9.02817254e+02, 3.85248075e+03, 0.00000000e+00, -1.76975743e+00, 5.00047348e-01, 5.74011634e-01, 3.61462984e+00, 0.00000000e+00, -0.9489985444, 3.7726522011, 5.0000000000, 2.5000000000, 1.0818881750