TITLE = "SU2 Simulation"
VARIABLES = "Iteration","CL","CD","CSF","CMx","CMy","CMz","CFx","CFy","CFz","CL/CD","AoA","Custom_ObjFunc","HeatFlux_Total","HeatFlux_Maximum","Temperature_Total","Res_Flow[0]","Res_Flow[1]","Res_Flow[2]","Res_Flow[3]","Res_Flow[4]"," Res_Turb[0]"," Res_Turb[1]"," Res_Turb[2]"," Res_Turb[3]","Linear_Solver_Iterations","CFL_Number","Time(min)"
ZONE T= "Convergence history"
           0, -4.07953174e-01, 1.13662807e-01, 0.00000000e+00, 0.00000000e+00, 0.00000000e+00, -3.05967625e-01, 1.13662807e-01, -4.07953174e-01, 0.00000000e+00, -3.58915274e+00, 0.00000000e+00, 0.00000000e+00, -1.50998966e+07, 1.36025280e+07, 0.00000000e+00, -1.56625812e+01, -6.11260646e+00, -6.64721471e+00, 4.97621321e+00, 0.00000000e+00, 4.6555459533, 4.1118804900, -7.3835970077, 9.7310735147, 1.0000000000, 1.0000000000, 0.0012495875
          10, -1.92920063e-01, 6.01008000e-02, 0.00000000e+00, 0.00000000e+00, 0.00000000e+00, -1.44727924e-01, 6.01008000e-02, -1.92920063e-01, 0.00000000e+00, -3.20994169e+00, 0.00000000e+00, 0.00000000e+00, -3.11378658e+06, 2.80431632e+06, 0.00000000e+00, -1.21906125e+00, 1.66988715e+00, 1.21988908e+00, 4.56936395e+00, 0.00000000e+00, 2.1698910807, 8.6581011351, -0.6998160852, 5.3803774840, 2.0000000000, 1.0010000000, 0.0120301167
          20, -9.35272706e-02, 3.58369974e-02, 0.00000000e+00, 0.00000000e+00, 0.00000000e+00, -7.01665084e-02, 3.58369974e-02, -9.35272706e-02, 0.00000000e+00, -2.60979650e+00, 0.00000000e+00, 0.00000000e+00, -8.59207703e+05, 7.75757116e+05, 0.00000000e+00, -1.29735700e+00, 1.58884189e+00, 1.21520911e+00, 4.46933004e+00, 0.00000000e+00, 1.8932192797, 8.3845148371, -0.9292663960, 4.7972004993, 2.0000000000, 1.0770888320, 0.0228992740
          30, -5.10651361e-02, 2.81147485e-02, 0.00000000e+00, 0.00000000e+00, 0.00000000e+00, -3.83060089e-02, 2.81147485e-02, -5.10651361e-02, 0.00000000e+00, -1.81631133e+00, 0.00000000e+00, 0.00000000e+00, -3.36661021e+05, 3.26510974e+05, 0.00000000e+00, -1.44005290e+00, 1.43030283e+00, 1.12307954e+00, 4.32060799e+00, 0.00000000e+00, 1.7002398200, 8.2092490190, -1.0800703513, 4.6055843406, 2.0000000000, 1.2727141596, 0.0334208330
          40, -3.07004208e-02, 2.44509780e-02, 0.00000000e+00, 0.00000000e+00, 0.00000000e+00, -2.30278627e-02, 2.44509780e-02, -3.07004208e-02, 0.00000000e+00, -1.25559071e+00, 0.00000000e+00, 0.00000000e+00, -2.08432781e+05, 2.23543543e+05, 0.00000000e+00, -1.53847513e+00, 1.32125944e+00, 1.04529121e+00, 4.22104671e+00, 0.00000000e+00, 1.5531334123, 8.0984488127, -1.1983216340, 4.0810478972, 2.0000000000, 1.4315336300, 0.0439637820
          50, -2.04725778e-02, 2.21796929e-02, 0.00000000e+00, 0.00000000e+00, 0.00000000e+00, -1.53556126e-02, 2.21796929e-02, -2.04725778e-02, 0.00000000e+00, -9.23032517e-01, 0.00000000e+00, 0.00000000e+00, -1.84344339e+05, 1.86941568e+05, 0.00000000e+00, -1.61019725e+00, 1.24401212e+00, 9.79105219e-01, 4.14770952e+00, 0.00000000e+00, 1.4453308858, 8.0168309742, -1.2935813940, 3.7155081560, 3.0000000000, 1.5580968660, 0.0548646609
          60, -1.47670931e-02, 2.04788573e-02, 0.00000000e+00, 0.00000000e+00, 0.00000000e+00, -1.10758849e-02, 2.04788573e-02, -1.47670931e-02, 0.00000000e+00, -7.21089705e-01, 0.00000000e+00, 0.00000000e+00, -1.74455689e+05, 1.67817422e+05, 0.00000000e+00, -1.66835529e+00, 1.18314957e+00, 9.21182921e-01, 4.08812695e+00, 0.00000000e+00, 1.3562713126, 7.9481438243, -1.3870241393, 3.7310577716, 3.0000000000, 1.6691199683, 0.0658219457
          70, -1.13599679e-02, 1.91067567e-02, 0.00000000e+00, 0.00000000e+00, 0.00000000e+00, -8.52000809e-03, 1.91067567e-02, -1.13599679e-02, 0.00000000e+00, -5.94552396e-01, 0.00000000e+00, 0.00000000e+00, -1.61501609e+05, 1.51827026e+05, 0.00000000e+00, -1.71738255e+00, 1.13273368e+00, 8.70491622e-01, 4.03773555e+00, 0.00000000e+00, 1.2799928114, 7.8882600836, -1.4850502832, 3.7283090877, 4.0000000000, 1.7678428000, 0.0770428618
          80, -9.01390974e-03, 1.79286609e-02, 0.00000000e+00, 0.00000000e+00, 0.00000000e+00, -6.75999316e-03, 1.79286609e-02, -9.01390974e-03, 0.00000000e+00, -5.02765366e-01, 0.00000000e+00, 0.00000000e+00, -1.49285448e+05, 1.38615122e+05, 0.00000000e+00, -1.75520704e+00, 1.09388092e+00, 8.30525392e-01, 3.99852179e+00, 0.00000000e+00, 1.2150910262, 7.8343005124, -1.5898099217, 3.6135578526, 3.0000000000, 1.8488830099, 0.0884847840
          90, -7.49006212e-03, 1.69181914e-02, 0.00000000e+00, 0.00000000e+00, 0.00000000e+00, -5.61689325e-03, 1.69181914e-02, -7.49006212e-03, 0.00000000e+00, -4.42722388e-01, 0.00000000e+00, 0.00000000e+00, -1.35664736e+05, 1.25297938e+05, 0.00000000e+00, -1.77638692e+00, 1.07113446e+00, 8.07015417e-01, 3.97554985e+00, 0.00000000e+00, 1.1574249087, 7.7857675775, -1.7018416331, 3.5664110836, 4.0000000000, 1.8987553254, 0.0997526010
         100, -6.40421109e-03, 1.60415580e-02, 0.00000000e+00, 0.00000000e+00, 0.00000000e+00, -4.80232488e-03, 1.60415580e-02, -6.40421109e-03, 0.00000000e+00, -3.99226253e-01, 0.00000000e+00, 0.00000000e+00, -1.23116147e+05, 1.13294465e+05, 0.00000000e+00, -1.77779892e+00, 1.06632014e+00, 8.03895907e-01, 3.97116051e+00, 0.00000000e+00, 1.1081194570, 7.7441256240, -1.8145527321, 3.3554640473, 3.0000000000, 1.9012345161, 0.1122296254
         110, -5.70911173e-03, 1.52962156e-02, 0.00000000e+00, 0.00000000e+00, 0.00000000e+00, -4.28130373e-03, 1.52962156e-02, -5.70911173e-03, 0.00000000e+00, -3.73236875e-01, 0.00000000e+00, 0.00000000e+00, -1.11994927e+05, 1.02622474e+05, 0.00000000e+00, -1.76584663e+00, 1.07232324e+00, 8.14775110e-01, 3.97824626e+00, 0.00000000e+00, 1.0657997422, 7.7075579783, -1.9317944334, 3.2237689267, 3.0000000000, 1.8300500810, 0.1234786590
         120, -5.26143087e-03, 1.46670711e-02, 0.00000000e+00, 0.00000000e+00, 0.00000000e+00, -3.94617260e-03, 1.46670711e-02, -5.26143087e-03, 0.00000000e+00, -3.58724031e-01, 0.00000000e+00, 0.00000000e+00, -1.01870627e+05, 9.29869143e+04, 0.00000000e+00, -1.75111129e+00, 1.07924187e+00, 8.28485849e-01, 3.98663107e+00, 0.00000000e+00, 1.0293912233, 7.6057090468, -2.0434201571, 3.1244528864, 3.0000000000, 1.7387821475, 0.1344397823
         130, -4.94740979e-03, 1.41251189e-02, 0.00000000e+00, 0.00000000e+00, 0.00000000e+00, -3.71132146e-03, 1.41251189e-02, -4.94740979e-03, 0.00000000e+00, -3.50256152e-01, 0.00000000e+00, 0.00000000e+00, -9.22410044e+04, 8.40860975e+04, 0.00000000e+00, -1.74143376e+00, 1.08093291e+00, 8.36508386e-01, 3.98973034e+00, 0.00000000e+00, 0.9927448114, 7.7760410901, -2.1422685674, 3.1881843191, 3.0000000000, 1.6779948461, 0.1474158724
         140, -4.72735849e-03, 1.36425112e-02, 0.00000000e+00, 0.00000000e+00, 0.00000000e+00, -3.54624289e-03, 1.36425112e-02, -4.72735849e-03, 0.00000000e+00, -3.46516739e-01, 0.00000000e+00, 0.00000000e+00, -8.31153031e+04, 7.59646853e+04, 0.00000000e+00, -1.74234575e+00, 1.07321092e+00, 8.33007740e-01, 3.98301148e+00, 0.00000000e+00, 0.9556717138, 7.8996719702, -2.2548538052, 3.2583991208, 3.0000000000, 1.6696022011, 0.1583413959
         150, -4.55639062e-03, 1.31969809e-02, 0.00000000e+00, 0.00000000e+00, 0.00000000e+00, -3.41657237e-03, 1.31969809e-02, -4.55639062e-03, 0.00000000e+00, -3.45260075e-01, 0.00000000e+00, 0.00000000e+00, -7.47990787e+04, 6.86069546e+04, 0.00000000e+00, -1.75923639e+00, 1.05086623e+00, 8.13075303e-01, 3.96090889e+00, 0.00000000e+00, 0.9182484824, 7.9637551305, -2.3691743169, 3.3414492055, 3.0000000000, 1.6971938196, 0.1693480730
         160, -4.39974964e-03, 1.27744977e-02, 0.00000000e+00, 0.00000000e+00, 0.00000000e+00, -3.29697001e-03, 1.27744977e-02, -4.39974964e-03, 0.00000000e+00, -3.44416646e-01, 0.00000000e+00, 0.00000000e+00, -6.69460261e+04, 6.16861915e+04, 0.00000000e+00, -1.79425372e+00, 1.01038865e+00, 7.75670377e-01, 3.92022852e+00, 0.00000000e+00, 0.8800943235, 7.9932547368, -2.4880930489, 3.3697000904, 3.0000000000, 1.7626703352, 0.1804098606
         170, -4.25908082e-03, 1.23647373e-02, 0.00000000e+00, 0.00000000e+00, 0.00000000e+00, -3.18874652e-03, 1.23647373e-02, -4.25908082e-03, 0.00000000e+00, -3.44453805e-01, 0.00000000e+00, 0.00000000e+00, -5.96213347e+04, 5.52339173e+04, 0.00000000e+00, -1.85119167e+00, 9.46066416e-01, 7.16333667e-01, 3.85525004e+00, 0.00000000e+00, 0.8408010226, 8.0006395816, -2.6151979146, 3.4027624059, 3.0000000000, 1.8791946148, 0.1914025307
         180, -4.13633351e-03, 1.19583908e-02, 0.00000000e+00, 0.00000000e+00, 0.00000000e+00, -3.09245526e-03, 1.19583908e-02, -4.13633351e-03, 0.00000000e+00, -3.45893823e-01, 0.00000000e+00, 0.00000000e+00, -5.26231312e+04, 4.94386540e+04, 0.00000000e+00, -1.92858857e+00, 8.60916086e-01, 6.34063627e-01, 3.76883581e+00, 0.00000000e+00, 0.7997565749, 7.9912801512, -2.7533207278, 3.4500877432, 3.0000000000, 2.0502795196, 0.2023188710
         190, -3.99865121e-03, 1.15442382e-02, 0.00000000e+00, 0.00000000e+00, 0.00000000e+00, -2.97822928e-03, 1.15442382e-02, -3.99865121e-03, 0.00000000e+00, -3.46376360e-01, 0.00000000e+00, 0.00000000e+00, -4.61215164e+04, 4.43404824e+04, 0.00000000e+00, -2.02963565e+00, 7.54007332e-01, 5.25703132e-01, 3.65915863e+00, 0.00000000e+00, 0.7562038925, 7.9667693163, -2.8562993594, 3.4713142696, 3.0000000000, 2.2974781112, 0.2132708430
         200, -3.83742678e-03, 1.11131880e-02, 0.00000000e+00, 0.00000000e+00, 0.00000000e+00, -2.82296697e-03, 1.11131880e-02, -3.83742678e-03, 0.00000000e+00, -3.45303866e-01, 0.00000000e+00, 0.00000000e+00, -3.98815122e+04, 3.95186355e+04, 0.00000000e+00, -2.15475465e+00, 6.27751996e-01, 3.90977205e-01, 3.52699157e+00, 0.00000000e+00, 0.7092725318, 7.9219961588, -3.0567076043, 3.5045700135, 3.0000000000, 2.6450873955, 0.2243922273
         210, -3.65662360e-03, 1.06579173e-02, 0.00000000e+00, 0.00000000e+00, 0.00000000e+00, -2.60098549e-03, 1.06579173e-02, -3.65662360e-03, 0.00000000e+00, -3.43089884e-01, 0.00000000e+00, 0.00000000e+00, -3.39880076e+04, 3.49430248e+04, 0.00000000e+00, -2.29651622e+00, 4.92291648e-01, 2.37991377e-01, 3.38118031e+00, 0.00000000e+00, 0.6601185412, 7.8242207359, -3.3196410667, 3.4763467573, 3.0000000000, 3.1069604651, 0.2353543997
         220, -3.54244083e-03, 1.01783613e-02, 0.00000000e+00, 0.00000000e+00, 0.00000000e+00, -2.39687484e-03, 1.01783613e-02, -3.54244083e-03, 0.00000000e+00, -3.48036461e-01, 0.00000000e+00, 0.00000000e+00, -2.78791127e+04, 3.02640189e+04, 0.00000000e+00, -2.44493455e+00, 3.58464160e-01, 7.68929281e-02, 3.23200858e+00, 0.00000000e+00, 0.5751365409, 7.7067022289, -3.7090405528, 4.8811519281, 4.0000000000, 3.6878999950, 0.2464336832
         230, -3.74105998e-03, 9.68836191e-03, 0.00000000e+00, 0.00000000e+00, 0.00000000e+00, -2.60624563e-03, 9.68836191e-03, -3.74105998e-03, 0.00000000e+00, -3.86139579e-01, 0.00000000e+00, 0.00000000e+00, -2.05671088e+04, 2.53401652e+04, 0.00000000e+00, -2.59447703e+00, 2.30296657e-01, -8.56578977e-02, 3.08331132e+00, 0.00000000e+00, 0.5277174695, 7.5904877433, -4.2450538631, 3.4906347334, 4.0000000000, 4.3761324795, 0.2579056859
         240, -4.18169215e-03, 9.18183831e-03, 0.00000000e+00, 0.00000000e+00, 0.00000000e+00, -3.21080910e-03, 9.18183831e-03, -4.18169215e-03, 0.00000000e+00, -4.55430820e-01, 0.00000000e+00, 0.00000000e+00, -1.31257060e+04, 1.99762830e+04, 0.00000000e+00, -2.75423473e+00, 1.09367286e-01, -2.70261473e-01, 2.92343708e+00, 0.00000000e+00, 0.4098503670, 7.4766372132, -4.7261004765, 3.6648901771, 4.0000000000, 5.2469377197, 0.2692233404
         250, -4.34995962e-03, 8.62708387e-03, 0.00000000e+00, 0.00000000e+00, 0.00000000e+00, -3.36752254e-03, 8.62708387e-03, -4.34995962e-03, 0.00000000e+00, -5.04221320e-01, 0.00000000e+00, 0.00000000e+00, -7.35909968e+03, 1.61287261e+04, 0.00000000e+00, -2.94538885e+00, 2.71011458e-03, -5.34577875e-01, 2.74185549e+00, 0.00000000e+00, 0.1224261744, 7.3606467024, -4.8099982532, 5.0069457969, 5.0000000000, 6.5271551743, 0.2810381492
         260, -4.39836009e-03, 8.03722275e-03, 0.00000000e+00, 0.00000000e+00, 0.00000000e+00, -3.15623094e-03, 8.03722275e-03, -4.39836009e-03, 0.00000000e+00, -5.47248748e-01, 0.00000000e+00, 0.00000000e+00, -2.95714595e+03, 1.33781040e+04, 0.00000000e+00, -3.10760854e+00, -7.89080243e-02, -8.08517003e-01, 2.60419239e+00, 0.00000000e+00, -1.1174690038, 7.2382630972, -4.8084560265, 4.6940974806, 5.0000000000, 7.9288013582, 0.2931944172
         270, -4.42032004e-03, 7.45924961e-03, 0.00000000e+00, 0.00000000e+00, 0.00000000e+00, -3.13952598e-03, 7.45924961e-03, -4.42032004e-03, 0.00000000e+00, -5.92595806e-01, 0.00000000e+00, 0.00000000e+00, 5.21443712e+02, 1.11370613e+04, 0.00000000e+00, -3.20145006e+00, -1.35403040e-01, -9.80117361e-01, 2.52668385e+00, 0.00000000e+00, -3.4851632750, 7.1171306463, -4.8374816555, 3.3685847385, 6.0000000000, 8.8826512374, 0.3055492798
         280, -4.18388589e-03, 6.92028778e-03, 0.00000000e+00, 0.00000000e+00, 0.00000000e+00, -3.06923766e-03, 6.92028778e-03, -4.18388589e-03, 0.00000000e+00, -6.04582645e-01, 0.00000000e+00, 0.00000000e+00, 2.26808445e+03, 9.41585284e+03, 0.00000000e+00, -3.27175955e+00, -1.73187948e-01, -1.18464090e+00, 2.47272198e+00, 0.00000000e+00, -3.7430432558, 7.0048048393, -4.8385076136, 3.2866572288, 6.0000000000, 9.6224813608, 0.3180635055
         290, -3.79898332e-03, 6.42643992e-03, 0.00000000e+00, 0.00000000e+00, 0.00000000e+00, -2.89669299e-03, 6.42643992e-03, -3.79898332e-03, 0.00000000e+00, -5.91148967e-01, 0.00000000e+00, 0.00000000e+00, 3.38256228e+03, 8.11954672e+03, 0.00000000e+00, -3.32301439e+00, -2.11463637e-01, -1.54867780e+00, 2.42977000e+00, 0.00000000e+00, -4.0108776487, 6.8994963945, -4.8928272353, 3.2045864016, 5.0000000000, 10.2869521386, 0.3303147276
         300, -3.35319633e-03, 5.98725989e-03, 0.00000000e+00, 0.00000000e+00, 0.00000000e+00, -2.61904127e-03, 5.98725989e-03, -3.35319633e-03, 0.00000000e+00, -5.60055250e-01, 0.00000000e+00, 0.00000000e+00, 4.23220640e+03, 7.18880466e+03, 0.00000000e+00, -3.34333252e+00, -2.39449025e-01, -1.46275313e+00, 2.40873353e+00, 0.00000000e+00, -4.2963357866, 6.8030879940, -4.9432523417, 3.1217668665, 6.0000000000, 10.5098658597, 0.3423652569
         310, -2.95449189e-03, 5.60003914e-03, 0.00000000e+00, 0.00000000e+00, 0.00000000e+00, -2.23398469e-03, 5.60003914e-03, -2.95449189e-03, 0.00000000e+00, -5.27584150e-01, 0.00000000e+00, 0.00000000e+00, 5.19397237e+03, 6.61724818e+03, 0.00000000e+00, -3.38552256e+00, -2.80946441e-01, -1.41325723e+00, 2.36291286e+00, 0.00000000e+00, -4.5951147903, 6.7142793266, -5.0140089215, 3.0574632093, 6.0000000000, 10.9774899031, 0.3549160520
         320, -2.72924887e-03, 5.25169896e-03, 0.00000000e+00, 0.00000000e+00, 0.00000000e+00, -2.01826519e-03, 5.25169896e-03, -2.72924887e-03, 0.00000000e+00, -5.19688751e-01, 0.00000000e+00, 0.00000000e+00, 6.72104233e+03, 6.71206337e+03, 0.00000000e+00, -3.43477419e+00, -3.27880547e-01, -1.45472908e+00, 2.31000951e+00, 0.00000000e+00, -4.1819154204, 6.6300204394, -5.0184095171, 3.0210553140, 6.0000000000, 11.6221498222, 0.3672004700
         330, -2.56537157e-03, 4.93277695e-03, 0.00000000e+00, 0.00000000e+00, 0.00000000e+00, -1.92278609e-03, 4.93277695e-03, -2.56537157e-03, 0.00000000e+00, -5.20066404e-01, 0.00000000e+00, 0.00000000e+00, 8.06948915e+03, 7.30992397e+03, 0.00000000e+00, -3.48260131e+00, -3.65889601e-01, -1.67068809e+00, 2.26475494e+00, 0.00000000e+00, -4.5223145323, 6.5498236327, -5.0868203619, 2.9638557420, 6.0000000000, 12.3199294128, 0.3795347969
         340, -2.38047512e-03, 4.64134583e-03, 0.00000000e+00, 0.00000000e+00, 0.00000000e+00, -1.80754105e-03, 4.64134583e-03, -2.38047512e-03, 0.00000000e+00, -5.12884669e-01, 0.00000000e+00, 0.00000000e+00, 8.87605496e+03, 7.96668573e+03, 0.00000000e+00, -3.51207553e+00, -3.94155654e-01, -1.83887761e+00, 2.23749836e+00, 0.00000000e+00, -4.1186463906, 6.4734078404, -5.0511715520, 2.9335368089, 6.0000000000, 12.7681784230, 0.3914830367
         350, -2.17934664e-03, 4.37608451e-03, 0.00000000e+00, 0.00000000e+00, 0.00000000e+00, -1.64261059e-03, 4.37608451e-03, -2.17934664e-03, 0.00000000e+00, -4.98012925e-01, 0.00000000e+00, 0.00000000e+00, 9.35849873e+03, 8.48403628e+03, 0.00000000e+00, -3.54141528e+00, -4.25378915e-01, -1.82135842e+00, 2.20712150e+00, 0.00000000e+00, -4.4865939615, 6.4004744547, -5.1506344181, 2.8685082231, 6.0000000000, 13.2221386293, 0.4024674495
         360, -2.02178287e-03, 4.13412086e-03, 0.00000000e+00, 0.00000000e+00, 0.00000000e+00, -1.51340259e-03, 4.13412086e-03, -2.02178287e-03, 0.00000000e+00, -4.89047838e-01, 0.00000000e+00, 0.00000000e+00, 9.89000347e+03, 8.98393398e+03, 0.00000000e+00, -3.57479560e+00, -4.57910745e-01, -1.87392838e+00, 2.17384426e+00, 0.00000000e+00, -4.7860679367, 6.3304453064, -5.1982378003, 3.5672786159, 6.0000000000, 13.7490021588, 0.4139706413
         370, -1.88545646e-03, 3.91163930e-03, 0.00000000e+00, 0.00000000e+00, 0.00000000e+00, -1.41158045e-03, 3.91163930e-03, -1.88545646e-03, 0.00000000e+00, -4.82011842e-01, 0.00000000e+00, 0.00000000e+00, 1.03245025e+04, 9.39780537e+03, 0.00000000e+00, -3.60604596e+00, -4.87962762e-01, -1.93077677e+00, 2.14320519e+00, 0.00000000e+00, -4.5036038181, 6.2628081932, -5.2203330050, 2.7851324402, 6.0000000000, 14.2403254015, 0.4268974463
         380, -1.76152924e-03, 3.70723705e-03, 0.00000000e+00, 0.00000000e+00, 0.00000000e+00, -1.31629660e-03, 3.70723705e-03, -1.76152924e-03, 0.00000000e+00, -4.75159590e-01, 0.00000000e+00, 0.00000000e+00, 1.06352070e+04, 9.77325023e+03, 0.00000000e+00, -3.63500490e+00, -5.16066405e-01, -2.01245851e+00, 2.11424739e+00, 0.00000000e+00, -4.5147759435, 6.1975401910, -5.2551408982, 3.3508330992, 6.0000000000, 14.7382157403, 0.4395044446
         390, -1.64943898e-03, 3.51902087e-03, 0.00000000e+00, 0.00000000e+00, 0.00000000e+00, -1.22825988e-03, 3.51902087e-03, -1.64943898e-03, 0.00000000e+00, -4.68721001e-01, 0.00000000e+00, 0.00000000e+00, 1.08145305e+04, 1.01408422e+04, 0.00000000e+00, -3.66527065e+00, -5.44330246e-01, -2.05850717e+00, 2.08424191e+00, 0.00000000e+00, -4.5712394325, 6.1342841329, -5.2909291598, 2.7110773602, 6.0000000000, 15.2037782733, 0.4532221079
         400, -1.57277129e-03, 3.34548567e-03, 0.00000000e+00, 0.00000000e+00, 0.00000000e+00, -1.16801633e-03, 3.34548567e-03, -1.57277129e-03, 0.00000000e+00, -4.70117478e-01, 0.00000000e+00, 0.00000000e+00, 1.09697676e+04, 1.06721126e+04, 0.00000000e+00, -3.69565692e+00, -5.71543602e-01, -2.13954530e+00, 2.05436257e+00, 0.00000000e+00, -4.2322227380, 6.0729207385, -5.2781461310, 2.6924940629, 6.0000000000, 15.7084848834, 0.4645451864
         410, -1.48575450e-03, 3.18482884e-03, 0.00000000e+00, 0.00000000e+00, 0.00000000e+00, -1.09972456e-03, 3.18482884e-03, -1.48575450e-03, 0.00000000e+00, -4.66509998e-01, 0.00000000e+00, 0.00000000e+00, 1.10926365e+04, 1.14270671e+04, 0.00000000e+00, -3.72395371e+00, -5.97734025e-01, -2.19214192e+00, 2.02632469e+00, 0.00000000e+00, -4.6872510690, 6.0131964011, -5.3621857844, 2.6337494465, 6.0000000000, 16.1729347632, 0.4755996426
         420, -1.42081879e-03, 3.03634406e-03, 0.00000000e+00, 0.00000000e+00, 0.00000000e+00, -1.04838114e-03, 3.03634406e-03, -1.42081879e-03, 0.00000000e+00, -4.67937350e-01, 0.00000000e+00, 0.00000000e+00, 1.11134150e+04, 1.23322549e+04, 0.00000000e+00, -3.74792753e+00, -6.22073080e-01, -2.18862821e+00, 2.00241291e+00, 0.00000000e+00, -4.3544863472, 5.9550410178, -5.3789448347, 2.6035367745, 6.0000000000, 16.5621266650, 0.4869989594
         430, -1.35886810e-03, 2.89883645e-03, 0.00000000e+00, 0.00000000e+00, 0.00000000e+00, -9.99226192e-04, 2.89883645e-03, -1.35886810e-03, 0.00000000e+00, -4.68763285e-01, 0.00000000e+00, 0.00000000e+00, 1.11116406e+04, 1.32948339e+04, 0.00000000e+00, -3.77406877e+00, -6.46829418e-01, -2.15198738e+00, 1.97630673e+00, 0.00000000e+00, -4.8242267460, 5.8984364384, -5.4231951535, 2.5495406267, 6.0000000000, 16.8597135383, 0.4985094110
         440, -1.30587601e-03, 2.77123915e-03, 0.00000000e+00, 0.00000000e+00, 0.00000000e+00, -9.56983285e-04, 2.77123915e-03, -1.30587601e-03, 0.00000000e+00, -4.71224581e-01, 0.00000000e+00, 0.00000000e+00, 1.10820718e+04, 1.42158381e+04, 0.00000000e+00, -3.78821841e+00, -6.67773688e-01, -2.05933252e+00, 1.96240516e+00, 0.00000000e+00, -4.5514899539, 5.8432053425, -5.4453402714, 2.5233723216, 6.0000000000, 17.1341971759, 0.5095778028
         450, -1.25406356e-03, 2.65222252e-03, 0.00000000e+00, 0.00000000e+00, 0.00000000e+00, -9.15478601e-04, 2.65222252e-03, -1.25406356e-03, 0.00000000e+00, -4.72834974e-01, 0.00000000e+00, 0.00000000e+00, 1.10005202e+04, 1.50423723e+04, 0.00000000e+00, -3.80668471e+00, -6.89515386e-01, -2.18543818e+00, 1.94333812e+00, 0.00000000e+00, -4.2522850250, 5.7891760905, -5.4694511065, 2.6029852789, 6.0000000000, 17.4789867143, 0.5210422675
         460, -1.20603172e-03, 2.54178705e-03, 0.00000000e+00, 0.00000000e+00, 0.00000000e+00, -8.76980509e-04, 2.54178705e-03, -1.20603172e-03, 0.00000000e+00, -4.74481808e-01, 0.00000000e+00, 0.00000000e+00, 1.09083285e+04, 1.57560330e+04, 0.00000000e+00, -3.83933303e+00, -7.13382542e-01, -2.36602634e+00, 1.91130038e+00, 0.00000000e+00, -4.7338328282, 5.7366039655, -5.5149670637, 2.4519412767, 6.0000000000, 18.0295517047, 0.5324256142
         470, -1.16641077e-03, 2.43879454e-03, 0.00000000e+00, 0.00000000e+00, 0.00000000e+00, -8.44904903e-04, 2.43879454e-03, -1.16641077e-03, 0.00000000e+00, -4.78273489e-01, 0.00000000e+00, 0.00000000e+00, 1.08013051e+04, 1.63607646e+04, 0.00000000e+00, -3.86261685e+00, -7.34389516e-01, -2.36811338e+00, 1.88833610e+00, 0.00000000e+00, -4.4661383313, 5.6851305341, -5.5360793689, 2.4980696217, 6.0000000000, 18.4197335457, 0.5437110623
         480, -1.12428021e-03, 2.34243151e-03, 0.00000000e+00, 0.00000000e+00, 0.00000000e+00, -8.10807208e-04, 2.34243151e-03, -1.12428021e-03, 0.00000000e+00, -4.79962897e-01, 0.00000000e+00, 0.00000000e+00, 1.06868774e+04, 1.68612062e+04, 0.00000000e+00, -3.88062482e+00, -7.54740886e-01, -2.24686086e+00, 1.87011978e+00, 0.00000000e+00, -4.2228986622, 5.6345926240, -5.5662761180, 2.3826218849, 6.0000000000, 18.5544271957, 0.5554196556
         490, -1.07894960e-03, 2.25190257e-03, 0.00000000e+00, 0.00000000e+00, 0.00000000e+00, -7.74273240e-04, 2.25190257e-03, -1.07894960e-03, 0.00000000e+00, -4.79128014e-01, 0.00000000e+00, 0.00000000e+00, 1.05578966e+04, 1.72657313e+04, 0.00000000e+00, -3.89405430e+00, -7.73220720e-01, -2.27589996e+00, 1.85633634e+00, 0.00000000e+00, -4.6155644769, 5.5849247589, -5.6083610846, 2.3552211242, 6.0000000000, 18.8861371274, 0.5669065436
         500, -1.03306429e-03, 2.16722722e-03, 0.00000000e+00, 0.00000000e+00, 0.00000000e+00, -7.37172094e-04, 2.16722722e-03, -1.03306429e-03, 0.00000000e+00, -4.76675580e-01, 0.00000000e+00, 0.00000000e+00, 1.04148538e+04, 1.75833994e+04, 0.00000000e+00, -3.92392431e+00, -7.94117165e-01, -2.47046250e+00, 1.82734578e+00, 0.00000000e+00, -4.4726341056, 5.5364143248, -5.6433641366, 2.3346843092, 6.0000000000, 19.4651978281, 0.5782513340
         510, -9.87839195e-04, 2.08797978e-03, 0.00000000e+00, 0.00000000e+00, 0.00000000e+00, -7.00788070e-04, 2.08797978e-03, -9.87839195e-04, 0.00000000e+00, -4.73107645e-01, 0.00000000e+00, 0.00000000e+00, 1.02587981e+04, 1.78255046e+04, 0.00000000e+00, -3.94306204e+00, -8.13273501e-01, -2.36225785e+00, 1.80811014e+00, 0.00000000e+00, -4.2053792618, 5.4888280488, -5.6776863821, 2.3242268654, 6.0000000000, 19.6096850044, 0.5902276476
         520, -9.48975325e-04, 2.01310215e-03, 0.00000000e+00, 0.00000000e+00, 0.00000000e+00, -6.69214591e-04, 2.01310215e-03, -9.48975325e-04, 0.00000000e+00, -4.71399488e-01, 0.00000000e+00, 0.00000000e+00, 1.00991654e+04, 1.80026624e+04, 0.00000000e+00, -3.95122823e+00, -8.29500774e-01, -2.30049742e+00, 1.79938678e+00, 0.00000000e+00, -4.0509450750, 5.4418386259, -5.7096480453, 2.2944914819, 6.0000000000, 19.7672104731, 0.6018454115
         530, -9.12554649e-04, 1.94276672e-03, 0.00000000e+00, 0.00000000e+00, 0.00000000e+00, -6.39313975e-04, 1.94276672e-03, -9.12554649e-04, 0.00000000e+00, -4.69719107e-01, 0.00000000e+00, 0.00000000e+00, 9.93331119e+03, 1.81218446e+04, 0.00000000e+00, -3.97883994e+00, -8.48641916e-01, -2.53022119e+00, 1.77269415e+00, 0.00000000e+00, -4.2490289820, 5.3958965524, -5.7813504073, 2.2447696318, 6.0000000000, 20.3819659818, 0.6135349274
         540, -8.79870880e-04, 1.87643033e-03, 0.00000000e+00, 0.00000000e+00, 0.00000000e+00, -6.12389606e-04, 1.87643033e-03, -8.79870880e-04, 0.00000000e+00, -4.68906767e-01, 0.00000000e+00, 0.00000000e+00, 9.77033014e+03, 1.81907710e+04, 0.00000000e+00, -3.99477180e+00, -8.66225646e-01, -2.39922265e+00, 1.75646697e+00, 0.00000000e+00, -4.1340575637, 5.3505752110, -5.8512592630, 2.2304779133, 6.0000000000, 20.5426679797, 0.6252859712
         550, -8.49147190e-04, 1.81329153e-03, 0.00000000e+00, 0.00000000e+00, 0.00000000e+00, -5.86895159e-04, 1.81329153e-03, -8.49147190e-04, 0.00000000e+00, -4.68290496e-01, 0.00000000e+00, 0.00000000e+00, 9.60133902e+03, 1.82145248e+04, 0.00000000e+00, -4.00616223e+00, -8.81998936e-01, -2.50412426e+00, 1.74487014e+00, 0.00000000e+00, -3.9616430429, 5.3056467639, -5.9157026398, 2.1984468733, 6.0000000000, 20.8768936620, 0.6367061218
         560, -8.22109385e-04, 1.75418511e-03, 0.00000000e+00, 0.00000000e+00, 0.00000000e+00, -5.64114765e-04, 1.75418511e-03, -8.22109385e-04, 0.00000000e+00, -4.68656005e-01, 0.00000000e+00, 0.00000000e+00, 9.43783972e+03, 1.81988809e+04, 0.00000000e+00, -4.02938026e+00, -8.99213232e-01, -2.51474889e+00, 1.72256454e+00, 0.00000000e+00, -3.8008729595, 5.2618636041, -5.9963378775, 2.1889346479, 6.0000000000, 21.2449974810, 0.6485464692
         570, -7.95583694e-04, 1.69784652e-03, 0.00000000e+00, 0.00000000e+00, 0.00000000e+00, -5.41744874e-04, 1.69784652e-03, -7.95583694e-04, 0.00000000e+00, -4.68583988e-01, 0.00000000e+00, 0.00000000e+00, 9.26605695e+03, 1.81490977e+04, 0.00000000e+00, -4.03959599e+00, -9.14985430e-01, -2.45676366e+00, 1.71153355e+00, 0.00000000e+00, -3.6595110156, 5.2183804875, -6.0343247668, 2.1409491251, 6.0000000000, 21.3880666939, 0.6600746393
         580, -7.69872315e-04, 1.64430879e-03, 0.00000000e+00, 0.00000000e+00, 0.00000000e+00, -5.19822691e-04, 1.64430879e-03, -7.69872315e-04, 0.00000000e+00, -4.68204220e-01, 0.00000000e+00, 0.00000000e+00, 9.10120601e+03, 1.80723445e+04, 0.00000000e+00, -4.06516148e+00, -9.32337607e-01, -2.78406874e+00, 1.68673478e+00, 0.00000000e+00, -3.4940617687, 5.1755149816, -5.7739397152, 2.2905820663, 6.0000000000, 22.0633119485, 0.6717035214
         590, -7.48524747e-04, 1.59378754e-03, 0.00000000e+00, 0.00000000e+00, 0.00000000e+00, -5.01526291e-04, 1.59378754e-03, -7.48524747e-04, 0.00000000e+00, -4.69651525e-01, 0.00000000e+00, 0.00000000e+00, 8.93766698e+03, 1.79772882e+04, 0.00000000e+00, -4.07326027e+00, -9.46158870e-01, -2.42627022e+00, 1.67843461e+00, 0.00000000e+00, -3.3866278853, 5.1333200916, -5.5426400197, 2.1601122047, 6.0000000000, 22.0661808461, 0.6836799065
         600, -7.27489673e-04, 1.54547747e-03, 0.00000000e+00, 0.00000000e+00, 0.00000000e+00, -4.83017470e-04, 1.54547747e-03, -7.27489673e-04, 0.00000000e+00, -4.70721631e-01, 0.00000000e+00, 0.00000000e+00, 8.76712889e+03, 1.78699280e+04, 0.00000000e+00, -4.09391734e+00, -9.62471688e-01, -2.74650683e+00, 1.65815419e+00, 0.00000000e+00, -3.2214078770, 5.0915431705, -5.2987706608, 2.0834171820, 6.0000000000, 22.6645171818, 0.6953159889
         610, -7.09184545e-04, 1.49978695e-03, 0.00000000e+00, 0.00000000e+00, 0.00000000e+00, -4.66882735e-04, 1.49978695e-03, -7.09184545e-04, 0.00000000e+00, -4.72856858e-01, 0.00000000e+00, 0.00000000e+00, 8.60939198e+03, 1.77586770e+04, 0.00000000e+00, -4.10943335e+00, -9.77693703e-01, -2.54742940e+00, 1.64260215e+00, 0.00000000e+00, -3.0309860880, 5.0504353612, -5.0559787239, 2.0826217532, 6.0000000000, 22.8154056512, 0.7069242160
         620, -6.90618904e-04, 1.45581191e-03, 0.00000000e+00, 0.00000000e+00, 0.00000000e+00, -4.50363274e-04, 1.45581191e-03, -6.90618904e-04, 0.00000000e+00, -4.74387454e-01, 0.00000000e+00, 0.00000000e+00, 8.44369510e+03, 1.76478758e+04, 0.00000000e+00, -4.11927831e+00, -9.91272997e-01, -2.70994359e+00, 1.63260840e+00, 0.00000000e+00, -2.8183581290, 5.0094304633, -4.8036043200, 2.1127272357, 6.0000000000, 23.1660063530, 0.7187833945
         630, -6.74914963e-04, 1.41454516e-03, 0.00000000e+00, 0.00000000e+00, 0.00000000e+00, -4.36038944e-04, 1.41454516e-03, -6.74914963e-04, 0.00000000e+00, -4.77125073e-01, 0.00000000e+00, 0.00000000e+00, 8.28880636e+03, 1.75462806e+04, 0.00000000e+00, -4.13393385e+00, -1.00515556e+00, -2.66884639e+00, 1.61836942e+00, 0.00000000e+00, -2.5911392814, 4.9695108418, -4.5402704827, 2.1737690280, 6.0000000000, 23.3067916361, 0.7306513230
         640, -6.58170205e-04, 1.37473002e-03, 0.00000000e+00, 0.00000000e+00, 0.00000000e+00, -4.20767644e-04, 1.37473002e-03, -6.58170205e-04, 0.00000000e+00, -4.78763246e-01, 0.00000000e+00, 0.00000000e+00, 8.12220768e+03, 1.74553732e+04, 0.00000000e+00, -4.14800163e+00, -1.01959723e+00, -2.67228430e+00, 1.60416681e+00, 0.00000000e+00, -2.3470796927, 4.9296696989, -4.2552645136, 2.3182006257, 6.0000000000, 23.7440431026, 0.7424928387
         650, -6.44316170e-04, 1.33707497e-03, 0.00000000e+00, 0.00000000e+00, 0.00000000e+00, -4.07876550e-04, 1.33707497e-03, -6.44316170e-04, 0.00000000e+00, -4.81884849e-01, 0.00000000e+00, 0.00000000e+00, 7.96994832e+03, 1.73804369e+04, 0.00000000e+00, -4.16875870e+00, -1.03465625e+00, -2.72753586e+00, 1.58376314e+00, 0.00000000e+00, -2.0900412075, 4.8906334313, -3.9453135321, 2.5082155127, 6.0000000000, 24.0539867899, 0.7546055396
         660, -6.30233906e-04, 1.30068779e-03, 0.00000000e+00, 0.00000000e+00, 0.00000000e+00, -3.94701338e-04, 1.30068779e-03, -6.30233906e-04, 0.00000000e+00, -4.84538956e-01, 0.00000000e+00, 0.00000000e+00, 7.81692679e+03, 1.73219323e+04, 0.00000000e+00, -4.17535146e+00, -1.04690549e+00, -2.75829930e+00, 1.57683944e+00, 0.00000000e+00, -1.8163663145, 4.8515672310, -3.5989324578, 2.4632244260, 6.0000000000, 24.2349190071, 0.7668313185