TITLE = "SU2 Simulation"
VARIABLES = "Iteration","CL","CD","CSF","CMx","CMy","CMz","CFx","CFy","CFz","CL/CD","AoA","Custom_ObjFunc","HeatFlux_Total","HeatFlux_Maximum","Temperature_Total","Res_Flow[0]","Res_Flow[1]","Res_Flow[2]","Res_Flow[3]","Res_Flow[4]"," Res_Turb[0]"," Res_Turb[1]"," Res_Turb[2]"," Res_Turb[3]","Linear_Solver_Iterations","CFL_Number","Time(min)"
ZONE T= "Convergence history"
           0, -4.07894012e-01, 1.13665731e-01, 0.00000000e+00, 0.00000000e+00, 0.00000000e+00, -3.05923284e-01, 1.13665731e-01, -4.07894012e-01, 0.00000000e+00, -3.58853991e+00, 0.00000000e+00, 0.00000000e+00, -1.54426275e+07, 1.36613335e+07, 0.00000000e+00, -1.55646621e+01, -6.11260646e+00, -6.64721476e+00, 4.72224245e+00, 0.00000000e+00, 4.3781800514, 4.1118806656, -7.1381415534, 9.5923985522, 2.0000000000, 1.0000000000, 0.0031642199
          10, -1.91426806e-01, 5.94157033e-02, 0.00000000e+00, 0.00000000e+00, 0.00000000e+00, -1.43608358e-01, 5.94157033e-02, -1.91426806e-01, 0.00000000e+00, -3.22182177e+00, 0.00000000e+00, 0.00000000e+00, -3.09791578e+06, 2.73992095e+06, 0.00000000e+00, -1.21915535e+00, 1.67040704e+00, 1.22136706e+00, 4.56917655e+00, 0.00000000e+00, 2.1487494747, 8.6551011921, -0.7588892655, 5.3334976807, 4.0000000000, 1.0010000000, 0.0145815849
          20, -9.28088197e-02, 3.55880083e-02, 0.00000000e+00, 0.00000000e+00, 0.00000000e+00, -6.96273439e-02, 3.55880083e-02, -9.28088197e-02, 0.00000000e+00, -2.60786777e+00, 0.00000000e+00, 0.00000000e+00, -8.49367686e+05, 7.53282976e+05, 0.00000000e+00, -1.29925915e+00, 1.58677607e+00, 1.21387633e+00, 4.46723730e+00, 0.00000000e+00, 1.8698079718, 8.3825374099, -0.9858005253, 4.8006849194, 4.0000000000, 1.0793209713, 0.0244287690
          30, -5.06709938e-02, 2.79796772e-02, 0.00000000e+00, 0.00000000e+00, 0.00000000e+00, -3.80103459e-02, 2.79796772e-02, -5.06709938e-02, 0.00000000e+00, -1.81099279e+00, 0.00000000e+00, 0.00000000e+00, -3.33765457e+05, 3.19930177e+05, 0.00000000e+00, -1.44182554e+00, 1.42839531e+00, 1.12149372e+00, 4.31878342e+00, 0.00000000e+00, 1.6765536098, 8.2084181252, -1.1369609948, 4.6106961957, 4.0000000000, 1.2744695119, 0.0350175500
          40, -3.05267463e-02, 2.43674455e-02, 0.00000000e+00, 0.00000000e+00, 0.00000000e+00, -2.28977287e-02, 2.43674455e-02, -3.05267463e-02, 0.00000000e+00, -1.25276760e+00, 0.00000000e+00, 0.00000000e+00, -2.09490964e+05, 2.20740016e+05, 0.00000000e+00, -1.53905889e+00, 1.32052523e+00, 1.04492443e+00, 4.22045216e+00, 0.00000000e+00, 1.5306021996, 8.0982622392, -1.2498505269, 4.0628404121, 4.0000000000, 1.4325324489, 0.0447798848
          50, -2.03909095e-02, 2.21184166e-02, 0.00000000e+00, 0.00000000e+00, 0.00000000e+00, -1.52944546e-02, 2.21184166e-02, -2.03909095e-02, 0.00000000e+00, -9.21897343e-01, 0.00000000e+00, 0.00000000e+00, -1.87032194e+05, 1.85491745e+05, 0.00000000e+00, -1.61044637e+00, 1.24366673e+00, 9.78986022e-01, 4.14746825e+00, 0.00000000e+00, 1.4236124819, 8.0170841331, -1.3453474405, 3.6156114050, 5.0000000000, 1.5584155502, 0.0541598678
          60, -1.47278889e-02, 2.04308954e-02, 0.00000000e+00, 0.00000000e+00, 0.00000000e+00, -1.10466068e-02, 2.04308954e-02, -1.47278889e-02, 0.00000000e+00, -7.20863603e-01, 0.00000000e+00, 0.00000000e+00, -1.77672634e+05, 1.67261526e+05, 0.00000000e+00, -1.66848312e+00, 1.18296497e+00, 9.21110689e-01, 4.08800257e+00, 0.00000000e+00, 1.3352958379, 7.9486202167, -1.4402496784, 3.6802247725, 5.0000000000, 1.6693423036, 0.0636798183
          70, -1.13378682e-02, 1.90675194e-02, 0.00000000e+00, 0.00000000e+00, 0.00000000e+00, -8.50358797e-03, 1.90675194e-02, -1.13378682e-02, 0.00000000e+00, -5.94616841e-01, 0.00000000e+00, 0.00000000e+00, -1.64956529e+05, 1.51856407e+05, 0.00000000e+00, -1.71732718e+00, 1.13274851e+00, 8.70582649e-01, 4.03779410e+00, 0.00000000e+00, 1.2598620722, 7.8889242411, -1.5408471875, 3.6635149422, 5.0000000000, 1.7673776918, 0.0728151004
          80, -9.00552733e-03, 1.78961452e-02, 0.00000000e+00, 0.00000000e+00, 0.00000000e+00, -6.75386354e-03, 1.78961452e-02, -9.00552733e-03, 0.00000000e+00, -5.03210453e-01, 0.00000000e+00, 0.00000000e+00, -1.52790892e+05, 1.38992079e+05, 0.00000000e+00, -1.75476734e+00, 1.09428138e+00, 8.31017979e-01, 3.99897487e+00, 0.00000000e+00, 1.1956485146, 7.8351269339, -1.6491192964, 3.5516319991, 6.0000000000, 1.8478487853, 0.0821077347
          90, -7.49347234e-03, 1.68913791e-02, 0.00000000e+00, 0.00000000e+00, 0.00000000e+00, -5.61952572e-03, 1.68913791e-02, -7.49347234e-03, 0.00000000e+00, -4.43627029e-01, 0.00000000e+00, 0.00000000e+00, -1.39008092e+05, 1.25816456e+05, 0.00000000e+00, -1.77572824e+00, 1.07174316e+00, 8.07730742e-01, 3.97621342e+00, 0.00000000e+00, 1.1388353099, 7.7867881877, -1.7651239440, 3.5049644946, 6.0000000000, 1.8971344513, 0.0919073343
         100, -6.41196751e-03, 1.60190012e-02, 0.00000000e+00, 0.00000000e+00, 0.00000000e+00, -4.80820135e-03, 1.60190012e-02, -6.41196751e-03, 0.00000000e+00, -4.00272616e-01, 0.00000000e+00, 0.00000000e+00, -1.26165095e+05, 1.13814352e+05, 0.00000000e+00, -1.77694654e+00, 1.06710843e+00, 8.04806663e-01, 3.97200540e+00, 0.00000000e+00, 1.0903237492, 7.7452541889, -1.8850839082, 3.2706325864, 6.0000000000, 1.8991343887, 0.1010483861
         110, -5.72079418e-03, 1.52773744e-02, 0.00000000e+00, 0.00000000e+00, 0.00000000e+00, -4.29011833e-03, 1.52773744e-02, -5.72079418e-03, 0.00000000e+00, -3.74461868e-01, 0.00000000e+00, 0.00000000e+00, -1.14780520e+05, 1.03138886e+05, 0.00000000e+00, -1.76493155e+00, 1.07316477e+00, 8.15748735e-01, 3.97914227e+00, 0.00000000e+00, 1.0488668990, 7.7078578173, -2.0035732656, 3.1333251140, 6.0000000000, 1.8276334862, 0.1100059509
         120, -5.27255442e-03, 1.46509280e-02, 0.00000000e+00, 0.00000000e+00, 0.00000000e+00, -3.95456003e-03, 1.46509280e-02, -5.27255442e-03, 0.00000000e+00, -3.59878529e-01, 0.00000000e+00, 0.00000000e+00, -1.04423694e+05, 9.35008600e+04, 0.00000000e+00, -1.75023585e+00, 1.08004655e+00, 8.29411401e-01, 3.98748537e+00, 0.00000000e+00, 1.0108053168, 7.6719111584, -2.1184413628, 3.1050998157, 6.0000000000, 1.7363207386, 0.1183226705
         130, -4.95819733e-03, 1.41111561e-02, 0.00000000e+00, 0.00000000e+00, 0.00000000e+00, -3.71945471e-03, 1.41111561e-02, -4.95819733e-03, 0.00000000e+00, -3.51367194e-01, 0.00000000e+00, 0.00000000e+00, -9.45780242e+04, 8.45861672e+04, 0.00000000e+00, -1.74056573e+00, 1.08174447e+00, 8.37421440e-01, 3.99058899e+00, 0.00000000e+00, 0.9723576005, 7.8409229925, -2.2302793129, 3.2013237517, 6.0000000000, 1.6756982876, 0.1263739705
         140, -4.73823298e-03, 1.36303579e-02, 0.00000000e+00, 0.00000000e+00, 0.00000000e+00, -3.55442006e-03, 1.36303579e-02, -4.73823298e-03, 0.00000000e+00, -3.47623520e-01, 0.00000000e+00, 0.00000000e+00, -8.52653135e+04, 7.64437881e+04, 0.00000000e+00, -1.74151577e+00, 1.07400138e+00, 8.33881716e-01, 3.98384410e+00, 0.00000000e+00, 0.9340255871, 7.9338681529, -2.3414477933, 3.2692212266, 6.0000000000, 1.6674639565, 0.1349500537
         150, -4.56597531e-03, 1.31862691e-02, 0.00000000e+00, 0.00000000e+00, 0.00000000e+00, -3.42375784e-03, 1.31862691e-02, -4.56597531e-03, 0.00000000e+00, -3.46267415e-01, 0.00000000e+00, 0.00000000e+00, -7.67748021e+04, 6.90651117e+04, 0.00000000e+00, -1.75847002e+00, 1.05159860e+00, 8.13894084e-01, 3.96168010e+00, 0.00000000e+00, 0.8956759884, 7.9801624309, -2.4560169607, 3.3429343017, 6.0000000000, 1.6951933388, 0.1431295872
         160, -4.40913903e-03, 1.27651212e-02, 0.00000000e+00, 0.00000000e+00, 0.00000000e+00, -3.30398620e-03, 1.27651212e-02, -4.40913903e-03, 0.00000000e+00, -3.45405183e-01, 0.00000000e+00, 0.00000000e+00, -6.87548908e+04, 6.21217945e+04, 0.00000000e+00, -1.79351568e+00, 1.01109409e+00, 7.76454323e-01, 3.92096972e+00, 0.00000000e+00, 0.8568442167, 7.9986589523, -2.5769557735, 3.3680771184, 5.0000000000, 1.7605964818, 0.1517184536
         170, -4.26811532e-03, 1.23565495e-02, 0.00000000e+00, 0.00000000e+00, 0.00000000e+00, -3.19547633e-03, 1.23565495e-02, -4.26811532e-03, 0.00000000e+00, -3.45413200e-01, 0.00000000e+00, 0.00000000e+00, -6.12759067e+04, 5.56570556e+04, 0.00000000e+00, -1.85042190e+00, 9.46805257e-01, 7.17151769e-01, 3.85602795e+00, 0.00000000e+00, 0.8170488043, 7.9985080220, -2.7079002180, 3.3964231446, 6.0000000000, 1.8769587043, 0.1599125187
         180, -4.14533449e-03, 1.19513312e-02, 0.00000000e+00, 0.00000000e+00, 0.00000000e+00, -3.09916499e-03, 1.19513312e-02, -4.14533449e-03, 0.00000000e+00, -3.46851277e-01, 0.00000000e+00, 0.00000000e+00, -5.41366184e+04, 4.98552268e+04, 0.00000000e+00, -1.92777518e+00, 8.61696026e-01, 6.34928093e-01, 3.76965971e+00, 0.00000000e+00, 0.7756554237, 7.9834492422, -2.8515312178, 3.4407446405, 6.0000000000, 2.0477476991, 0.1683852037
         190, -4.00670811e-03, 1.15382150e-02, 0.00000000e+00, 0.00000000e+00, 0.00000000e+00, -2.98425601e-03, 1.15382150e-02, -4.00670811e-03, 0.00000000e+00, -3.47255456e-01, 0.00000000e+00, 0.00000000e+00, -4.75130435e+04, 4.48682027e+04, 0.00000000e+00, -2.02875682e+00, 7.54842421e-01, 5.26639531e-01, 3.66004953e+00, 0.00000000e+00, 0.7318902942, 7.9536825730, -3.0160521513, 3.4558280838, 6.0000000000, 2.2944726477, 0.1768166343
         200, -3.84520556e-03, 1.11082329e-02, 0.00000000e+00, 0.00000000e+00, 0.00000000e+00, -2.82884795e-03, 1.11082329e-02, -3.84520556e-03, 0.00000000e+00, -3.46158169e-01, 0.00000000e+00, 0.00000000e+00, -4.11953926e+04, 4.03472928e+04, 0.00000000e+00, -2.15377998e+00, 6.28652127e-01, 3.92023262e-01, 3.52797358e+00, 0.00000000e+00, 0.6851394891, 7.8973197467, -3.2112339871, 3.4820158857, 6.0000000000, 2.6413425620, 0.1847274502
         210, -3.66444987e-03, 1.06540539e-02, 0.00000000e+00, 0.00000000e+00, 0.00000000e+00, -2.60707205e-03, 1.06540539e-02, -3.66444987e-03, 0.00000000e+00, -3.43948876e-01, 0.00000000e+00, 0.00000000e+00, -3.51085310e+04, 3.52443895e+04, 0.00000000e+00, -2.29542803e+00, 4.93254604e-01, 2.39167746e-01, 3.38226427e+00, 0.00000000e+00, 0.6381610790, 7.7887187785, -3.4456889958, 3.3834545384, 7.0000000000, 3.1021753816, 0.1938366175
         220, -3.54838130e-03, 1.01755345e-02, 0.00000000e+00, 0.00000000e+00, 0.00000000e+00, -2.40121895e-03, 1.01755345e-02, -3.54838130e-03, 0.00000000e+00, -3.48716945e-01, 0.00000000e+00, 0.00000000e+00, -2.87649769e+04, 3.04401060e+04, 0.00000000e+00, -2.44375580e+00, 3.59436242e-01, 7.81793459e-02, 3.23316079e+00, 0.00000000e+00, 0.5512564693, 7.6760903720, -3.7136440279, 4.7910501295, 8.0000000000, 3.6818329763, 0.2033741514
         230, -3.74356142e-03, 9.68651901e-03, 0.00000000e+00, 0.00000000e+00, 0.00000000e+00, -2.60662822e-03, 9.68651901e-03, -3.74356142e-03, 0.00000000e+00, -3.86471282e-01, 0.00000000e+00, 0.00000000e+00, -2.12970232e+04, 2.52801149e+04, 0.00000000e+00, -2.59314974e+00, 2.31315490e-01, -8.42156293e-02, 3.08460081e+00, 0.00000000e+00, 0.5117425471, 7.5637906996, -4.0146854385, 3.5960397470, 8.0000000000, 4.3682081122, 0.2131908178
         240, -4.18335010e-03, 9.18115732e-03, 0.00000000e+00, 0.00000000e+00, 0.00000000e+00, -3.21063638e-03, 9.18115732e-03, -4.18335010e-03, 0.00000000e+00, -4.55645182e-01, 0.00000000e+00, 0.00000000e+00, -1.37951894e+04, 2.02208833e+04, 0.00000000e+00, -2.75265690e+00, 1.10345645e-01, -2.68349620e-01, 2.92495877e+00, 0.00000000e+00, 0.3978490532, 7.4528813634, -4.3008645281, 3.9644133851, 8.0000000000, 5.2359663133, 0.2232041836
         250, -4.35351681e-03, 8.62771547e-03, 0.00000000e+00, 0.00000000e+00, 0.00000000e+00, -3.37124423e-03, 8.62771547e-03, -4.35351681e-03, 0.00000000e+00, -5.04596706e-01, 0.00000000e+00, 0.00000000e+00, -7.94080216e+03, 1.61601884e+04, 0.00000000e+00, -2.94366407e+00, 3.45071109e-03, -5.31935485e-01, 2.74334993e+00, 0.00000000e+00, 0.1139738528, 7.3393064764, -4.5298830490, 3.6347407380, 9.0000000000, 6.5120812954, 0.2340024352
         260, -4.40082723e-03, 8.03878359e-03, 0.00000000e+00, 0.00000000e+00, 0.00000000e+00, -3.15939990e-03, 8.03878359e-03, -4.40082723e-03, 0.00000000e+00, -5.47449397e-01, 0.00000000e+00, 0.00000000e+00, -3.31163157e+03, 1.33911220e+04, 0.00000000e+00, -3.10646749e+00, -7.83674754e-02, -8.06418604e-01, 2.60509915e+00, 0.00000000e+00, -2.0264463751, 7.2187609032, -4.5855973260, 4.8678684021, 11.0000000000, 7.9152181632, 0.2452396870
         270, -4.42362413e-03, 7.46128451e-03, 0.00000000e+00, 0.00000000e+00, 0.00000000e+00, -3.14097798e-03, 7.46128451e-03, -4.42362413e-03, 0.00000000e+00, -5.92877021e-01, 0.00000000e+00, 0.00000000e+00, 3.89818022e+02, 1.11440939e+04, 0.00000000e+00, -3.20081401e+00, -1.35132437e-01, -9.78417855e-01, 2.52715448e+00, 0.00000000e+00, -3.4928621850, 7.0991098670, -4.5953794009, 3.5133211220, 12.0000000000, 8.8732002631, 0.2563566844
         280, -4.18900320e-03, 6.92252468e-03, 0.00000000e+00, 0.00000000e+00, 0.00000000e+00, -3.07212361e-03, 6.92252468e-03, -4.18900320e-03, 0.00000000e+00, -6.05126510e-01, 0.00000000e+00, 0.00000000e+00, 2.24387645e+03, 9.41940346e+03, 0.00000000e+00, -3.27111406e+00, -1.72890054e-01, -1.18153543e+00, 2.47320187e+00, 0.00000000e+00, -3.7537042735, 6.9879156954, -4.6044704316, 3.2773103723, 12.0000000000, 9.6123420924, 0.2687690337
         290, -3.80424021e-03, 6.42870408e-03, 0.00000000e+00, 0.00000000e+00, 0.00000000e+00, -2.89968927e-03, 6.42870408e-03, -3.80424021e-03, 0.00000000e+00, -5.91758488e-01, 0.00000000e+00, 0.00000000e+00, 3.36386151e+03, 8.12087754e+03, 0.00000000e+00, -3.32282915e+00, -2.11250745e-01, -1.54638620e+00, 2.42992949e+00, 0.00000000e+00, -4.0200463673, 6.8834936574, -4.6212463193, 3.1873973765, 12.0000000000, 10.2803899298, 0.2817708015
         300, -3.35839958e-03, 5.98939613e-03, 0.00000000e+00, 0.00000000e+00, 0.00000000e+00, -2.62337194e-03, 5.98939613e-03, -3.35839958e-03, 0.00000000e+00, -5.60724238e-01, 0.00000000e+00, 0.00000000e+00, 4.19926475e+03, 7.18661602e+03, 0.00000000e+00, -3.34308069e+00, -2.39210754e-01, -1.46382559e+00, 2.40897562e+00, 0.00000000e+00, -4.3056076390, 6.7877667792, -4.6217168336, 3.1049055901, 12.0000000000, 10.5039515745, 0.2948272864
         310, -2.95812811e-03, 5.60210592e-03, 0.00000000e+00, 0.00000000e+00, 0.00000000e+00, -2.23766687e-03, 5.60210592e-03, -2.95812811e-03, 0.00000000e+00, -5.28038589e-01, 0.00000000e+00, 0.00000000e+00, 5.20285962e+03, 6.60687224e+03, 0.00000000e+00, -3.38500862e+00, -2.80530394e-01, -1.41295317e+00, 2.36342708e+00, 0.00000000e+00, -4.6038558311, 6.6995293830, -4.6730390363, 3.0367614644, 11.0000000000, 10.9674083181, 0.3071568529
         320, -2.73141963e-03, 5.25374260e-03, 0.00000000e+00, 0.00000000e+00, 0.00000000e+00, -2.01984687e-03, 5.25374260e-03, -2.73141963e-03, 0.00000000e+00, -5.19899782e-01, 0.00000000e+00, 0.00000000e+00, 6.79629575e+03, 6.69157500e+03, 0.00000000e+00, -3.43424634e+00, -3.27502863e-01, -1.45275698e+00, 2.31051796e+00, 0.00000000e+00, -4.1915680306, 6.6157577063, -4.6902929769, 3.0004234741, 12.0000000000, 11.6109937167, 0.3192433198
         330, -2.56759489e-03, 4.93480848e-03, 0.00000000e+00, 0.00000000e+00, 0.00000000e+00, -1.92405202e-03, 4.93480848e-03, -2.56759489e-03, 0.00000000e+00, -5.20302844e-01, 0.00000000e+00, 0.00000000e+00, 8.18746660e+03, 7.29146924e+03, 0.00000000e+00, -3.48234302e+00, -3.65649451e-01, -1.66754630e+00, 2.26496332e+00, 0.00000000e+00, -4.5317750244, 6.5359907100, -4.7186813616, 2.9453921756, 12.0000000000, 12.3095299920, 0.3314559857
         340, -2.38304654e-03, 4.64330786e-03, 0.00000000e+00, 0.00000000e+00, 0.00000000e+00, -1.80951596e-03, 4.64330786e-03, -2.38304654e-03, 0.00000000e+00, -5.13221741e-01, 0.00000000e+00, 0.00000000e+00, 9.01411581e+03, 7.94555019e+03, 0.00000000e+00, -3.51188048e+00, -3.93923961e-01, -1.83835777e+00, 2.23766722e+00, 0.00000000e+00, -4.1285660210, 6.4599481071, -4.7293926534, 2.9122778788, 13.0000000000, 12.7604141091, 0.3430509528
         350, -2.18161884e-03, 4.37796896e-03, 0.00000000e+00, 0.00000000e+00, 0.00000000e+00, -1.64454702e-03, 4.37796896e-03, -2.18161884e-03, 0.00000000e+00, -4.98317566e-01, 0.00000000e+00, 0.00000000e+00, 9.51557853e+03, 8.47221754e+03, 0.00000000e+00, -3.54124940e+00, -4.25097732e-01, -1.82258091e+00, 2.20731166e+00, 0.00000000e+00, -4.4966977974, 6.3873507919, -4.7812999981, 2.8522367274, 13.0000000000, 13.2143112877, 0.3543797851
         360, -2.02365475e-03, 4.13594317e-03, 0.00000000e+00, 0.00000000e+00, 0.00000000e+00, -1.51483226e-03, 4.13594317e-03, -2.02365475e-03, 0.00000000e+00, -4.89284952e-01, 0.00000000e+00, 0.00000000e+00, 1.00676018e+04, 8.98123028e+03, 0.00000000e+00, -3.57470641e+00, -4.57672269e-01, -1.87493797e+00, 2.17388118e+00, 0.00000000e+00, -4.5674114291, 6.3176278200, -4.7944310011, 3.4477082376, 13.0000000000, 13.7408000626, 0.3659386357
         370, -1.88717858e-03, 3.91341832e-03, 0.00000000e+00, 0.00000000e+00, 0.00000000e+00, -1.41287178e-03, 3.91341832e-03, -1.88717858e-03, 0.00000000e+00, -4.82232776e-01, 0.00000000e+00, 0.00000000e+00, 1.05169230e+04, 9.40033205e+03, 0.00000000e+00, -3.60579032e+00, -4.87678873e-01, -1.93383676e+00, 2.14346170e+00, 0.00000000e+00, -4.5143770577, 6.2502814699, -4.8027684575, 2.7693218955, 13.0000000000, 14.2332814066, 0.3773254673
         380, -1.76328658e-03, 3.70897956e-03, 0.00000000e+00, 0.00000000e+00, 0.00000000e+00, -1.31767423e-03, 3.70897956e-03, -1.76328658e-03, 0.00000000e+00, -4.75410163e-01, 0.00000000e+00, 0.00000000e+00, 1.08399553e+04, 9.77972368e+03, 0.00000000e+00, -3.63499124e+00, -5.15830846e-01, -2.01655069e+00, 2.11427153e+00, 0.00000000e+00, -4.1602091478, 6.1852877106, -4.8184996435, 2.7451920604, 13.0000000000, 14.7291385349, 0.3892182668
         390, -1.65046234e-03, 3.52071827e-03, 0.00000000e+00, 0.00000000e+00, 0.00000000e+00, -1.22905387e-03, 3.52071827e-03, -1.65046234e-03, 0.00000000e+00, -4.68785690e-01, 0.00000000e+00, 0.00000000e+00, 1.10291339e+04, 1.01488421e+04, 0.00000000e+00, -3.66510407e+00, -5.44035988e-01, -2.06097223e+00, 2.08445900e+00, 0.00000000e+00, -4.5825951842, 6.1222912839, -4.8555618052, 2.6922850973, 13.0000000000, 15.1938643246, 0.4018776178
         400, -1.57340146e-03, 3.34714935e-03, 0.00000000e+00, 0.00000000e+00, 0.00000000e+00, -1.16851725e-03, 3.34714935e-03, -1.57340146e-03, 0.00000000e+00, -4.70072083e-01, 0.00000000e+00, 0.00000000e+00, 1.11900155e+04, 1.06759263e+04, 0.00000000e+00, -3.69548898e+00, -5.71259052e-01, -2.13905110e+00, 2.05456369e+00, 0.00000000e+00, -4.2432474712, 6.0611767558, -4.8747767084, 2.7660721003, 13.0000000000, 15.6941414100, 0.4141905864
         410, -1.48693194e-03, 3.18651377e-03, 0.00000000e+00, 0.00000000e+00, 0.00000000e+00, -1.10063104e-03, 3.18651377e-03, -1.48693194e-03, 0.00000000e+00, -4.66632830e-01, 0.00000000e+00, 0.00000000e+00, 1.13216120e+04, 1.14261064e+04, 0.00000000e+00, -3.72388183e+00, -5.97487092e-01, -2.18833426e+00, 2.02641725e+00, 0.00000000e+00, -4.6985207734, 6.0017118052, -4.9017571087, 2.6140562772, 14.0000000000, 16.1483110795, 0.4270035028
         420, -1.42158852e-03, 3.03805953e-03, 0.00000000e+00, 0.00000000e+00, 0.00000000e+00, -1.04899620e-03, 3.03805953e-03, -1.42158852e-03, 0.00000000e+00, -4.67926487e-01, 0.00000000e+00, 0.00000000e+00, 1.13435807e+04, 1.23251963e+04, 0.00000000e+00, -3.74754603e+00, -6.21760670e-01, -2.18262222e+00, 2.00273159e+00, 0.00000000e+00, -4.3653918061, 5.9438159348, -4.9389928752, 2.5933223594, 14.0000000000, 16.5352303304, 0.4399365505
         430, -1.35957059e-03, 2.90051617e-03, 0.00000000e+00, 0.00000000e+00, 0.00000000e+00, -9.99790137e-04, 2.90051617e-03, -1.35957059e-03, 0.00000000e+00, -4.68734014e-01, 0.00000000e+00, 0.00000000e+00, 1.13447091e+04, 1.32851298e+04, 0.00000000e+00, -3.77365727e+00, -6.46494806e-01, -2.14671999e+00, 1.97671146e+00, 0.00000000e+00, -4.8314326830, 5.8874428801, -4.9604028974, 2.5375099161, 14.0000000000, 16.8421120496, 0.4549358845
         440, -1.30643926e-03, 2.77282197e-03, 0.00000000e+00, 0.00000000e+00, 0.00000000e+00, -9.57440437e-04, 2.77282197e-03, -1.30643926e-03, 0.00000000e+00, -4.71158723e-01, 0.00000000e+00, 0.00000000e+00, 1.13166252e+04, 1.42058285e+04, 0.00000000e+00, -3.78766347e+00, -6.67419238e-01, -2.05475814e+00, 1.96293104e+00, 0.00000000e+00, -4.5644226170, 5.8324088169, -4.9911950188, 2.5070803076, 14.0000000000, 17.1228057688, 0.4699764689
         450, -1.25463601e-03, 2.65372750e-03, 0.00000000e+00, 0.00000000e+00, 0.00000000e+00, -9.15940169e-04, 2.65372750e-03, -1.25463601e-03, 0.00000000e+00, -4.72782534e-01, 0.00000000e+00, 0.00000000e+00, 1.12353072e+04, 1.50328867e+04, 0.00000000e+00, -3.80646865e+00, -6.89216248e-01, -2.20173412e+00, 1.94354968e+00, 0.00000000e+00, -4.2631984825, 5.7785862463, -5.0234438014, 2.5043468431, 14.0000000000, 17.5000375321, 0.4864665667
         460, -1.20659138e-03, 2.54329012e-03, 0.00000000e+00, 0.00000000e+00, 0.00000000e+00, -8.77429816e-04, 2.54329012e-03, -1.20659138e-03, 0.00000000e+00, -4.74421449e-01, 0.00000000e+00, 0.00000000e+00, 1.11433053e+04, 1.57471994e+04, 0.00000000e+00, -3.83927628e+00, -7.13101746e-01, -2.36783667e+00, 1.91137682e+00, 0.00000000e+00, -4.7380766531, 5.7262288813, -5.0526880684, 2.4393360037, 14.0000000000, 18.0140479501, 0.5036093513
         470, -1.16692882e-03, 2.44027104e-03, 0.00000000e+00, 0.00000000e+00, 0.00000000e+00, -8.45331327e-04, 2.44027104e-03, -1.16692882e-03, 0.00000000e+00, -4.78196395e-01, 0.00000000e+00, 0.00000000e+00, 1.10356365e+04, 1.63529454e+04, 0.00000000e+00, -3.86237685e+00, -7.34097668e-01, -2.35621158e+00, 1.88857308e+00, 0.00000000e+00, -4.4868421665, 5.6749611469, -5.0884273657, 2.4980300364, 14.0000000000, 18.3948958809, 0.5199778835
         480, -1.12496525e-03, 2.34385182e-03, 0.00000000e+00, 0.00000000e+00, 0.00000000e+00, -8.11364128e-04, 2.34385182e-03, -1.12496525e-03, 0.00000000e+00, -4.79964322e-01, 0.00000000e+00, 0.00000000e+00, 1.09194327e+04, 1.68546311e+04, 0.00000000e+00, -3.87993299e+00, -7.54360879e-01, -2.24428296e+00, 1.87075052e+00, 0.00000000e+00, -4.2313386796, 5.6246132519, -5.0804875199, 2.3707333941, 14.0000000000, 18.5326014437, 0.5388425668
         490, -1.07971957e-03, 2.25327817e-03, 0.00000000e+00, 0.00000000e+00, 0.00000000e+00, -7.74889655e-04, 2.25327817e-03, -1.07971957e-03, 0.00000000e+00, -4.79177218e-01, 0.00000000e+00, 0.00000000e+00, 1.07890276e+04, 1.72603220e+04, 0.00000000e+00, -3.89394833e+00, -7.72946156e-01, -2.28867162e+00, 1.85643285e+00, 0.00000000e+00, -4.6100183399, 5.5751416808, -5.1360906044, 2.4491979408, 14.0000000000, 18.8840140747, 0.5573232690
         500, -1.03404836e-03, 2.16859056e-03, 0.00000000e+00, 0.00000000e+00, 0.00000000e+00, -7.37957046e-04, 2.16859056e-03, -1.03404836e-03, 0.00000000e+00, -4.76829688e-01, 0.00000000e+00, 0.00000000e+00, 1.06445780e+04, 1.75790474e+04, 0.00000000e+00, -3.92344523e+00, -7.93730720e-01, -2.47101667e+00, 1.82784286e+00, 0.00000000e+00, -4.4827691177, 5.5268291601, -5.1776252824, 2.3238077008, 15.0000000000, 19.4424444542, 0.5745876869
         510, -9.88684865e-04, 2.08927924e-03, 0.00000000e+00, 0.00000000e+00, 0.00000000e+00, -7.01463798e-04, 2.08927924e-03, -9.88684865e-04, 0.00000000e+00, -4.73218153e-01, 0.00000000e+00, 0.00000000e+00, 1.04866891e+04, 1.78222565e+04, 0.00000000e+00, -3.94243859e+00, -8.12895613e-01, -2.35705021e+00, 1.80870363e+00, 0.00000000e+00, -4.2120984071, 5.4794118990, -5.1707368276, 2.3140418907, 15.0000000000, 19.5877956242, 0.5914844672
         520, -9.49695877e-04, 2.01432781e-03, 0.00000000e+00, 0.00000000e+00, 0.00000000e+00, -6.69794189e-04, 2.01432781e-03, -9.49695877e-04, 0.00000000e+00, -4.71470369e-01, 0.00000000e+00, 0.00000000e+00, 1.03233561e+04, 1.80004136e+04, 0.00000000e+00, -3.95091671e+00, -8.29183161e-01, -2.31158917e+00, 1.79968792e+00, 0.00000000e+00, -4.0567096325, 5.4325847637, -5.2070094116, 2.2497951941, 15.0000000000, 19.7620389356, 0.6111766696
         530, -9.13294176e-04, 1.94395220e-03, 0.00000000e+00, 0.00000000e+00, 0.00000000e+00, -6.39913539e-04, 1.94395220e-03, -9.13294176e-04, 0.00000000e+00, -4.69813083e-01, 0.00000000e+00, 0.00000000e+00, 1.01552761e+04, 1.81204888e+04, 0.00000000e+00, -3.97846859e+00, -8.48297752e-01, -2.53666601e+00, 1.77307446e+00, 0.00000000e+00, -4.2366428534, 5.3868140499, -5.2429302059, 2.4042088266, 15.0000000000, 20.3704005338, 0.6337217013
         540, -8.80522994e-04, 1.87757653e-03, 0.00000000e+00, 0.00000000e+00, 0.00000000e+00, -6.12925904e-04, 1.87757653e-03, -8.80522994e-04, 0.00000000e+00, -4.68967831e-01, 0.00000000e+00, 0.00000000e+00, 9.98925564e+03, 1.81902485e+04, 0.00000000e+00, -3.99403498e+00, -8.65832128e-01, -2.39741606e+00, 1.75717043e+00, 0.00000000e+00, -4.1213586814, 5.3416566273, -5.2354914827, 2.2250309767, 15.0000000000, 20.5085661293, 0.6513802171
         550, -8.49713033e-04, 1.81442075e-03, 0.00000000e+00, 0.00000000e+00, 0.00000000e+00, -5.87359371e-04, 1.81442075e-03, -8.49713033e-04, 0.00000000e+00, -4.68310910e-01, 0.00000000e+00, 0.00000000e+00, 9.81710813e+03, 1.82147613e+04, 0.00000000e+00, -4.00634096e+00, -8.81778158e-01, -2.51632095e+00, 1.74470656e+00, 0.00000000e+00, -3.9590115824, 5.2969191926, -5.2960560544, 2.1883737221, 15.0000000000, 20.8805137873, 0.6763808012
         560, -8.22722492e-04, 1.75529984e-03, 0.00000000e+00, 0.00000000e+00, 0.00000000e+00, -5.64623313e-04, 1.75529984e-03, -8.22722492e-04, 0.00000000e+00, -4.68707668e-01, 0.00000000e+00, 0.00000000e+00, 9.65119314e+03, 1.81998550e+04, 0.00000000e+00, -4.02878604e+00, -8.98847384e-01, -2.49972492e+00, 1.72310433e+00, 0.00000000e+00, -3.7940472468, 5.2533074263, -5.3277304645, 2.1790634035, 15.0000000000, 21.2177904467, 0.6940893014
         570, -7.96080640e-04, 1.69892992e-03, 0.00000000e+00, 0.00000000e+00, 0.00000000e+00, -5.42158609e-04, 1.69892992e-03, -7.96080640e-04, 0.00000000e+00, -4.68577679e-01, 0.00000000e+00, 0.00000000e+00, 9.47578161e+03, 1.81506946e+04, 0.00000000e+00, -4.03928036e+00, -9.14669492e-01, -2.45087002e+00, 1.71182329e+00, 0.00000000e+00, -3.6492835132, 5.2099900075, -5.2657052406, 2.1401671591, 15.0000000000, 21.3653133523, 0.7194970012
         580, -7.70482893e-04, 1.64537748e-03, 0.00000000e+00, 0.00000000e+00, 0.00000000e+00, -5.20327490e-04, 1.64537748e-03, -7.70482893e-04, 0.00000000e+00, -4.68271203e-01, 0.00000000e+00, 0.00000000e+00, 9.30824233e+03, 1.80744693e+04, 0.00000000e+00, -4.06514774e+00, -9.32071615e-01, -2.78855802e+00, 1.68676550e+00, 0.00000000e+00, -3.4865877432, 5.1672996252, -5.3168937078, 2.2941744196, 15.0000000000, 22.0482083486, 0.7420765519
         590, -7.48960157e-04, 1.59481841e-03, 0.00000000e+00, 0.00000000e+00, 0.00000000e+00, -5.01900998e-04, 1.59481841e-03, -7.48960157e-04, 0.00000000e+00, -4.69620962e-01, 0.00000000e+00, 0.00000000e+00, 9.14170285e+03, 1.79797540e+04, 0.00000000e+00, -4.07278595e+00, -9.45827042e-01, -2.40984474e+00, 1.67885522e+00, 0.00000000e+00, -3.3639001147, 5.1252519652, -5.2237899083, 2.3479800638, 15.0000000000, 22.0368931384, 0.7642401695
         600, -7.27968734e-04, 1.54649763e-03, 0.00000000e+00, 0.00000000e+00, 0.00000000e+00, -4.83428565e-04, 1.54649763e-03, -7.27968734e-04, 0.00000000e+00, -4.70720885e-01, 0.00000000e+00, 0.00000000e+00, 8.96791794e+03, 1.78726457e+04, 0.00000000e+00, -4.09397574e+00, -9.62199821e-01, -2.74223878e+00, 1.65811103e+00, 0.00000000e+00, -3.1993723207, 5.0836481051, -5.0571594963, 2.0854145641, 15.0000000000, 22.6465798052, 0.7914217869
         610, -7.09667509e-04, 1.50080090e-03, 0.00000000e+00, 0.00000000e+00, 0.00000000e+00, -4.67306732e-04, 1.50080090e-03, -7.09667509e-04, 0.00000000e+00, -4.72859196e-01, 0.00000000e+00, 0.00000000e+00, 8.80752476e+03, 1.77615173e+04, 0.00000000e+00, -4.10861943e+00, -9.77268973e-01, -2.53752721e+00, 1.64336930e+00, 0.00000000e+00, -3.0090622137, 5.0427048600, -4.9536896325, 2.0918176221, 15.0000000000, 22.7644571918, 0.8147355517
         620, -6.91039655e-04, 1.45682486e-03, 0.00000000e+00, 0.00000000e+00, 0.00000000e+00, -4.50733592e-04, 1.45682486e-03, -6.91039655e-04, 0.00000000e+00, -4.74346418e-01, 0.00000000e+00, 0.00000000e+00, 8.63849722e+03, 1.76506964e+04, 0.00000000e+00, -4.11961848e+00, -9.91058847e-01, -2.72573386e+00, 1.63229336e+00, 0.00000000e+00, -2.7965428899, 5.0018841059, -4.7389416127, 2.1338981164, 15.0000000000, 23.1621779713, 0.8364054203
         630, -6.75356188e-04, 1.41554919e-03, 0.00000000e+00, 0.00000000e+00, 0.00000000e+00, -4.36435361e-04, 1.41554919e-03, -6.75356188e-04, 0.00000000e+00, -4.77098354e-01, 0.00000000e+00, 0.00000000e+00, 8.48092426e+03, 1.75489223e+04, 0.00000000e+00, -4.13340120e+00, -1.00476929e+00, -2.66619775e+00, 1.61891924e+00, 0.00000000e+00, -2.5689891880, 4.9621219874, -4.5005678826, 2.2135775207, 15.0000000000, 23.2723123437, 0.8600630840
         640, -6.58576033e-04, 1.37573272e-03, 0.00000000e+00, 0.00000000e+00, 0.00000000e+00, -4.21131582e-04, 1.37573272e-03, -6.58576033e-04, 0.00000000e+00, -4.78709291e-01, 0.00000000e+00, 0.00000000e+00, 8.31107765e+03, 1.74577293e+04, 0.00000000e+00, -4.14841479e+00, -1.01936334e+00, -2.69288398e+00, 1.60380124e+00, 0.00000000e+00, -2.3244380987, 4.9224562095, -4.2158458166, 2.3719482255, 15.0000000000, 23.7423137065, 0.8854910692
         650, -6.44767290e-04, 1.33807422e-03, 0.00000000e+00, 0.00000000e+00, 0.00000000e+00, -4.08288818e-04, 1.33807422e-03, -6.44767290e-04, 0.00000000e+00, -4.81862127e-01, 0.00000000e+00, 0.00000000e+00, 8.15580934e+03, 1.73824049e+04, 0.00000000e+00, -4.16809237e+00, -1.03425248e+00, -2.70282914e+00, 1.58439408e+00, 0.00000000e+00, -2.0664918158, 4.8835763775, -3.9059971026, 2.5734341419, 15.0000000000, 24.0075534365, 0.9156829198
         660, -6.30609478e-04, 1.30167137e-03, 0.00000000e+00, 0.00000000e+00, 0.00000000e+00, -3.95048898e-04, 1.30167137e-03, -6.30609478e-04, 0.00000000e+00, -4.84461356e-01, 0.00000000e+00, 0.00000000e+00, 7.99944031e+03, 1.73234129e+04, 0.00000000e+00, -4.17566807e+00, -1.04666123e+00, -2.77587546e+00, 1.57653281e+00, 0.00000000e+00, -1.7919632154, 4.8446693624, -3.5759896871, 2.4319459244, 15.0000000000, 24.2369771044, 0.9505659858