TITLE = "SU2 Simulation"
VARIABLES = "Iteration","CL","CD","CSF","CMx","CMy","CMz","CFx","CFy","CFz","CL/CD","AoA","Custom_ObjFunc","HeatFlux_Total","HeatFlux_Maximum","Temperature_Total","Res_Flow[0]","Res_Flow[1]","Res_Flow[2]","Res_Flow[3]","Res_Flow[4]"," Res_Turb[0]"," Res_Turb[1]"," Res_Turb[2]"," Res_Turb[3]","Linear_Solver_Iterations","CFL_Number","Time(min)"
ZONE T= "Convergence history"
           0, -4.32253294e-01, 1.16002550e-01, 0.00000000e+00, 0.00000000e+00, 0.00000000e+00, -3.24199640e-01, 1.16002550e-01, -4.32253294e-01, 0.00000000e+00, -3.72623960e+00, 0.00000000e+00, 0.00000000e+00, -1.60719776e+07, 1.44763953e+07, 0.00000000e+00, -1.56625812e+01, -6.11260646e+00, -6.64721471e+00, 4.97621321e+00, 0.00000000e+00, 4.6555498440, 4.1143976759, -6.4050983158, 9.7212457002, 2.0000000000, 5.0000000000, 0.0048954134
          10, -3.35844684e-02, 2.29653208e-02, 0.00000000e+00, 0.00000000e+00, 0.00000000e+00, -2.52848373e-02, 2.29653208e-02, -3.35844684e-02, 0.00000000e+00, -1.46239927e+00, 0.00000000e+00, 0.00000000e+00, -1.17622417e+05, 1.10692104e+05, 0.00000000e+00, -1.65586302e+00, 1.23037272e+00, 8.46757965e-01, 4.10189456e+00, 0.00000000e+00, 2.2800375316, 8.2402751212, 0.0376385572, 5.3891129782, 9.0000000000, 5.0000000000, 0.0438089146
          20, -9.36233529e-03, 1.78886241e-02, 0.00000000e+00, 0.00000000e+00, 0.00000000e+00, -7.04603681e-03, 1.78886241e-02, -9.36233529e-03, 0.00000000e+00, -5.23368105e-01, 0.00000000e+00, 0.00000000e+00, -4.35919730e+04, 5.35347829e+04, 0.00000000e+00, -1.91011783e+00, 9.49040489e-01, 6.59427659e-01, 3.84041307e+00, 0.00000000e+00, 1.9806955328, 7.9622955011, -0.2741618191, 4.6617839678, 10.0000000000, 5.0000000000, 0.0776093357
          30, -6.17554883e-03, 1.55854166e-02, 0.00000000e+00, 0.00000000e+00, 0.00000000e+00, -4.63962242e-03, 1.55854166e-02, -6.17554883e-03, 0.00000000e+00, -3.96238933e-01, 0.00000000e+00, 0.00000000e+00, -4.65914686e+04, 5.27057699e+04, 0.00000000e+00, -1.96484460e+00, 8.82911629e-01, 6.05868491e-01, 3.77921491e+00, 0.00000000e+00, 1.8131324513, 7.7986398286, -0.4610835084, 4.3589126436, 10.0000000000, 5.0000000000, 0.1095240884
          40, -5.33247454e-03, 1.39075834e-02, 0.00000000e+00, 0.00000000e+00, 0.00000000e+00, -4.00620080e-03, 1.39075834e-02, -5.33247454e-03, 0.00000000e+00, -3.83422079e-01, 0.00000000e+00, 0.00000000e+00, -3.49472947e+04, 4.30476268e+04, 0.00000000e+00, -1.96114277e+00, 8.61064335e-01, 6.06123238e-01, 3.76285933e+00, 0.00000000e+00, 1.6835943576, 7.6771061060, -0.6065003880, 4.2132563678, 9.0000000000, 5.0000000000, 0.1417255723
          50, -4.88001931e-03, 1.26151043e-02, 0.00000000e+00, 0.00000000e+00, 0.00000000e+00, -3.66493508e-03, 1.26151043e-02, -4.88001931e-03, 0.00000000e+00, -3.86839396e-01, 0.00000000e+00, 0.00000000e+00, -2.21167483e+04, 3.27030000e+04, 0.00000000e+00, -1.99408218e+00, 8.12835255e-01, 5.67400971e-01, 3.71789383e+00, 0.00000000e+00, 1.5791443040, 7.5794614691, -0.7288498299, 4.0779428814, 9.0000000000, 5.0000000000, 0.1732039279
          60, -4.52864171e-03, 1.15849747e-02, 0.00000000e+00, 0.00000000e+00, 0.00000000e+00, -3.37911277e-03, 1.15849747e-02, -4.52864171e-03, 0.00000000e+00, -3.90906481e-01, 0.00000000e+00, 0.00000000e+00, -1.19224272e+04, 2.41808882e+04, 0.00000000e+00, -2.09003037e+00, 7.06694059e-01, 4.70883287e-01, 3.61143245e+00, 0.00000000e+00, 1.4930497746, 7.4969789559, -0.8380267843, 3.9547938260, 9.0000000000, 5.0000000000, 0.2047295195
          70, -4.20265759e-03, 1.07400038e-02, 0.00000000e+00, 0.00000000e+00, 0.00000000e+00, -3.04690337e-03, 1.07400038e-02, -4.20265759e-03, 0.00000000e+00, -3.91308761e-01, 0.00000000e+00, 0.00000000e+00, -4.35086525e+03, 1.98063681e+04, 0.00000000e+00, -2.23934394e+00, 5.46036937e-01, 3.06802740e-01, 3.44601228e+00, 0.00000000e+00, 1.4205591439, 7.4252411835, -0.9396480267, 3.8197353217, 9.0000000000, 5.0000000000, 0.2368597260
          80, -4.05054978e-03, 1.00380807e-02, 0.00000000e+00, 0.00000000e+00, 0.00000000e+00, -2.81726040e-03, 1.00380807e-02, -4.05054978e-03, 0.00000000e+00, -4.03518353e-01, 0.00000000e+00, 0.00000000e+00, 1.84017652e+03, 1.69103702e+04, 0.00000000e+00, -2.41083863e+00, 3.77491640e-01, 1.16683753e-01, 3.26530967e+00, 0.00000000e+00, 1.3574618618, 7.3619788622, -1.0375424077, 3.6316103165, 9.0000000000, 5.0000000000, 0.2696615270
          90, -4.30808427e-03, 9.45311644e-03, 0.00000000e+00, 0.00000000e+00, 0.00000000e+00, -3.10507740e-03, 9.45311644e-03, -4.30808427e-03, 0.00000000e+00, -4.55731641e-01, 0.00000000e+00, 0.00000000e+00, 7.92263212e+03, 1.70375339e+04, 0.00000000e+00, -2.58037576e+00, 2.22926452e-01, -7.07691161e-02, 3.09078088e+00, 0.00000000e+00, 1.3025624580, 7.3049848593, -1.1331250290, 3.5743638397, 9.0000000000, 5.0000000000, 0.3027720257
         100, -4.72183904e-03, 8.94928021e-03, 0.00000000e+00, 0.00000000e+00, 0.00000000e+00, -3.64535771e-03, 8.94928021e-03, -4.72183904e-03, 0.00000000e+00, -5.27622214e-01, 0.00000000e+00, 0.00000000e+00, 1.35208624e+04, 1.98194578e+04, 0.00000000e+00, -2.74304231e+00, 9.52303982e-02, -2.57735507e-01, 2.92523776e+00, 0.00000000e+00, 1.2565857599, 7.2532150308, -1.2259403119, 3.5406912597, 9.0000000000, 5.0000000000, 0.3361175727
         110, -4.90317174e-03, 8.49898754e-03, 0.00000000e+00, 0.00000000e+00, 0.00000000e+00, -3.80191463e-03, 8.49898754e-03, -4.90317174e-03, 0.00000000e+00, -5.76912452e-01, 0.00000000e+00, 0.00000000e+00, 1.75587487e+04, 2.20875804e+04, 0.00000000e+00, -2.90324926e+00, -1.31724873e-04, -4.59746788e-01, 2.76991777e+00, 0.00000000e+00, 1.2168725694, 7.2052096940, -1.3173147623, 3.4309068786, 9.0000000000, 5.0000000000, 0.3694655667
         120, -4.91612525e-03, 8.09592792e-03, 0.00000000e+00, 0.00000000e+00, 0.00000000e+00, -3.63063383e-03, 8.09592792e-03, -4.91612525e-03, 0.00000000e+00, -6.07234316e-01, 0.00000000e+00, 0.00000000e+00, 2.00697383e+04, 2.35347490e+04, 0.00000000e+00, -3.04526745e+00, -6.86035577e-02, -6.66877272e-01, 2.64459311e+00, 0.00000000e+00, 1.1808537611, 7.1597306914, -1.4091283301, 3.2052847742, 9.0000000000, 5.0000000000, 0.4027606989
         130, -4.91381760e-03, 7.73574808e-03, 0.00000000e+00, 0.00000000e+00, 0.00000000e+00, -3.48112577e-03, 7.73574808e-03, -4.91381760e-03, 0.00000000e+00, -6.35209103e-01, 0.00000000e+00, 0.00000000e+00, 2.17845824e+04, 2.38756522e+04, 0.00000000e+00, -3.14940476e+00, -1.19532581e-01, -8.38714063e-01, 2.55833547e+00, 0.00000000e+00, 1.1483803773, 7.1166875394, -1.5013134182, 3.0440027746, 9.0000000000, 5.0000000000, 0.4359397054
         140, -4.87746368e-03, 7.41010432e-03, 0.00000000e+00, 0.00000000e+00, 0.00000000e+00, -3.44573605e-03, 7.41010432e-03, -4.87746368e-03, 0.00000000e+00, -6.58217951e-01, 0.00000000e+00, 0.00000000e+00, 2.30227775e+04, 2.35129433e+04, 0.00000000e+00, -3.21624604e+00, -1.53317201e-01, -9.68093456e-01, 2.50516562e+00, 0.00000000e+00, 1.1194660937, 7.3648170240, -1.5935030343, 3.1731301553, 9.0000000000, 5.0000000000, 0.4680841204
         150, -4.74440723e-03, 7.11198849e-03, 0.00000000e+00, 0.00000000e+00, 0.00000000e+00, -3.41398268e-03, 7.11198849e-03, -4.74440723e-03, 0.00000000e+00, -6.67099959e-01, 0.00000000e+00, 0.00000000e+00, 2.36273546e+04, 2.27043479e+04, 0.00000000e+00, -3.25989130e+00, -1.74072185e-01, -1.06997406e+00, 2.47415302e+00, 0.00000000e+00, 1.0862329942, 7.8438513359, -1.6848507244, 3.6933675601, 9.0000000000, 5.0000000000, 0.4996753008
         160, -4.52747146e-03, 6.83800819e-03, 0.00000000e+00, 0.00000000e+00, 0.00000000e+00, -3.32431280e-03, 6.83800819e-03, -4.52747146e-03, 0.00000000e+00, -6.62103836e-01, 0.00000000e+00, 0.00000000e+00, 2.35421157e+04, 2.16377868e+04, 0.00000000e+00, -3.29881736e+00, -1.93056674e-01, -1.19613236e+00, 2.44699682e+00, 0.00000000e+00, 1.0484266054, 7.9222754275, -1.7761727313, 3.7770348777, 9.0000000000, 5.0000000000, 0.5305661860
         170, -4.28491250e-03, 6.58633861e-03, 0.00000000e+00, 0.00000000e+00, 0.00000000e+00, -3.21209690e-03, 6.58633861e-03, -4.28491250e-03, 0.00000000e+00, -6.50575799e-01, 0.00000000e+00, 0.00000000e+00, 2.30641540e+04, 2.05800352e+04, 0.00000000e+00, -3.33293818e+00, -2.13271551e-01, -1.38353577e+00, 2.42072785e+00, 0.00000000e+00, 1.0088495799, 7.9147019884, -1.8678601003, 3.7744408759, 9.0000000000, 5.0000000000, 0.5605387398
         180, -4.04555855e-03, 6.35461986e-03, 0.00000000e+00, 0.00000000e+00, 0.00000000e+00, -3.10571130e-03, 6.35461986e-03, -4.04555855e-03, 0.00000000e+00, -6.36632661e-01, 0.00000000e+00, 0.00000000e+00, 2.24559360e+04, 1.97276395e+04, 0.00000000e+00, -3.35188558e+00, -2.30282753e-01, -1.55083913e+00, 2.40320807e+00, 0.00000000e+00, 0.9691291845, 7.8743099730, -1.9588733385, 3.7444417492, 9.0000000000, 5.0000000000, 0.5914860049
         190, -3.80276433e-03, 6.14018838e-03, 0.00000000e+00, 0.00000000e+00, 0.00000000e+00, -2.98416948e-03, 6.14018838e-03, -3.80276433e-03, 0.00000000e+00, -6.19323724e-01, 0.00000000e+00, 0.00000000e+00, 2.17907623e+04, 1.91583255e+04, 0.00000000e+00, -3.36023377e+00, -2.42219297e-01, -1.56871462e+00, 2.39455001e+00, 0.00000000e+00, 0.9300697959, 7.8194443447, -2.0500064207, 3.6993459070, 9.0000000000, 5.0000000000, 0.6237186986
         200, -3.54918056e-03, 5.94097539e-03, 0.00000000e+00, 0.00000000e+00, 0.00000000e+00, -2.80801493e-03, 5.94097539e-03, -3.54918056e-03, 0.00000000e+00, -5.97407047e-01, 0.00000000e+00, 0.00000000e+00, 2.10645054e+04, 1.87720560e+04, 0.00000000e+00, -3.36894000e+00, -2.53940382e-01, -1.50045397e+00, 2.38486130e+00, 0.00000000e+00, 0.8918858051, 7.7561729689, -2.1417814226, 3.6392878414, 9.0000000000, 5.0000000000, 0.6558428156
         210, -3.30296952e-03, 5.75569750e-03, 0.00000000e+00, 0.00000000e+00, 0.00000000e+00, -2.57890114e-03, 5.75569750e-03, -3.30296952e-03, 0.00000000e+00, -5.73860860e-01, 0.00000000e+00, 0.00000000e+00, 2.03133575e+04, 1.84015854e+04, 0.00000000e+00, -3.38310043e+00, -2.70532408e-01, -1.44565081e+00, 2.36809850e+00, 0.00000000e+00, 0.8546320028, 7.6781471940, -2.2338561792, 3.5627035965, 9.0000000000, 5.0000000000, 0.6878246480
         220, -3.10046813e-03, 5.58366376e-03, 0.00000000e+00, 0.00000000e+00, 0.00000000e+00, -2.35733534e-03, 5.58366376e-03, -3.10046813e-03, 0.00000000e+00, -5.55274863e-01, 0.00000000e+00, 0.00000000e+00, 1.96871155e+04, 1.80452640e+04, 0.00000000e+00, -3.40312256e+00, -2.92523326e-01, -1.40729283e+00, 2.34446242e+00, 0.00000000e+00, 0.8193049039, 7.5834147015, -2.3279718683, 3.4793594112, 9.0000000000, 5.0000000000, 0.7203410157
         230, -2.96094238e-03, 5.42384528e-03, 0.00000000e+00, 0.00000000e+00, 0.00000000e+00, -2.20064102e-03, 5.42384528e-03, -2.96094238e-03, 0.00000000e+00, -5.45912029e-01, 0.00000000e+00, 0.00000000e+00, 1.93530323e+04, 1.77977924e+04, 0.00000000e+00, -3.42610176e+00, -3.16392302e-01, -1.38868656e+00, 2.31782719e+00, 0.00000000e+00, 0.7804816549, 7.5014831859, -2.4313503952, 5.0325262997, 9.0000000000, 5.0000000000, 0.7525715422
         240, -2.87109438e-03, 5.27470573e-03, 0.00000000e+00, 0.00000000e+00, 0.00000000e+00, -2.11354381e-03, 5.27470573e-03, -2.87109438e-03, 0.00000000e+00, -5.44313660e-01, 0.00000000e+00, 0.00000000e+00, 1.92307373e+04, 1.75981926e+04, 0.00000000e+00, -3.44922281e+00, -3.38347712e-01, -1.40742567e+00, 2.29219405e+00, 0.00000000e+00, 0.7468876712, 7.4305362375, -2.5179902432, 4.0396922115, 9.0000000000, 5.0000000000, 0.7861251373
         250, -2.80641908e-03, 5.13474832e-03, 0.00000000e+00, 0.00000000e+00, 0.00000000e+00, -2.06933975e-03, 5.13474832e-03, -2.80641908e-03, 0.00000000e+00, -5.46554358e-01, 0.00000000e+00, 0.00000000e+00, 1.91584427e+04, 1.73742493e+04, 0.00000000e+00, -3.47233343e+00, -3.57075645e-01, -1.48068033e+00, 2.26905925e+00, 0.00000000e+00, 0.7186845580, 7.3673982991, -2.6183904800, 3.2865405766, 9.0000000000, 5.0000000000, 0.8194245660
         260, -2.74704208e-03, 5.00279540e-03, 0.00000000e+00, 0.00000000e+00, 0.00000000e+00, -2.04273929e-03, 5.00279540e-03, -2.74704208e-03, 0.00000000e+00, -5.49101425e-01, 0.00000000e+00, 0.00000000e+00, 1.91001891e+04, 1.71711429e+04, 0.00000000e+00, -3.49444567e+00, -3.72620797e-01, -1.61437532e+00, 2.24968481e+00, 0.00000000e+00, 0.6703719075, 7.3102029172, -2.7244756051, 4.0738494451, 9.0000000000, 5.0000000000, 0.8530994263
         270, -2.68418793e-03, 4.87790941e-03, 0.00000000e+00, 0.00000000e+00, 0.00000000e+00, -2.02052256e-03, 4.87790941e-03, -2.68418793e-03, 0.00000000e+00, -5.50274247e-01, 0.00000000e+00, 0.00000000e+00, 1.89658207e+04, 1.69527123e+04, 0.00000000e+00, -3.51228738e+00, -3.85052130e-01, -1.77836420e+00, 2.23548903e+00, 0.00000000e+00, 0.6478745549, 7.2576612767, -2.8385373624, 3.7840633239, 9.0000000000, 5.0000000000, 0.8861586691
         280, -2.61233665e-03, 4.75942811e-03, 0.00000000e+00, 0.00000000e+00, 0.00000000e+00, -1.98957422e-03, 4.75942811e-03, -2.61233665e-03, 0.00000000e+00, -5.48876166e-01, 0.00000000e+00, 0.00000000e+00, 1.87546624e+04, 1.67344236e+04, 0.00000000e+00, -3.52447260e+00, -3.95037364e-01, -1.90110348e+00, 2.22574364e+00, 0.00000000e+00, 0.5904746650, 7.2088992986, -2.9629763135, 3.1764509136, 9.0000000000, 5.0000000000, 0.9207481006
         290, -2.52896974e-03, 4.64684603e-03, 0.00000000e+00, 0.00000000e+00, 0.00000000e+00, -1.93775583e-03, 4.64684603e-03, -2.52896974e-03, 0.00000000e+00, -5.44233600e-01, 0.00000000e+00, 0.00000000e+00, 1.84623647e+04, 1.65027129e+04, 0.00000000e+00, -3.53381863e+00, -4.04349978e-01, -1.93506401e+00, 2.21736254e+00, 0.00000000e+00, 0.5232619466, 7.1632555452, -3.1091310803, 3.2293280948, 9.0000000000, 5.0000000000, 0.9545488631
         300, -2.43888657e-03, 4.53983456e-03, 0.00000000e+00, 0.00000000e+00, 0.00000000e+00, -1.86608394e-03, 4.53983456e-03, -2.43888657e-03, 0.00000000e+00, -5.37219262e-01, 0.00000000e+00, 0.00000000e+00, 1.81264380e+04, 1.62641432e+04, 0.00000000e+00, -3.54370855e+00, -4.14754696e-01, -1.91710956e+00, 2.20757667e+00, 0.00000000e+00, 0.4486405135, 7.1202091246, -3.2802117746, 3.0983093558, 9.0000000000, 5.0000000000, 0.9883851911
         310, -2.35180319e-03, 4.43811023e-03, 0.00000000e+00, 0.00000000e+00, 0.00000000e+00, -1.78830706e-03, 4.43811023e-03, -2.35180319e-03, 0.00000000e+00, -5.29910947e-01, 0.00000000e+00, 0.00000000e+00, 1.77986735e+04, 1.60347675e+04, 0.00000000e+00, -3.55553659e+00, -4.26802150e-01, -1.88929796e+00, 2.19546275e+00, 0.00000000e+00, 0.2717934175, 7.0793812052, -3.4741796267, 4.3359802080, 9.0000000000, 5.0000000000, 1.0244332023
         320, -2.27472061e-03, 4.34137026e-03, 0.00000000e+00, 0.00000000e+00, 0.00000000e+00, -1.71763950e-03, 4.34137026e-03, -2.27472061e-03, 0.00000000e+00, -5.23963742e-01, 0.00000000e+00, 0.00000000e+00, 1.75165340e+04, 1.58270074e+04, 0.00000000e+00, -3.56891434e+00, -4.39854562e-01, -1.87324344e+00, 2.18171676e+00, 0.00000000e+00, 0.0444070289, 7.0405049583, -3.7018729290, 4.3097146592, 9.0000000000, 5.0000000000, 1.0598232101
         330, -2.20886432e-03, 4.24925755e-03, 0.00000000e+00, 0.00000000e+00, 0.00000000e+00, -1.65921091e-03, 4.24925755e-03, -2.20886432e-03, 0.00000000e+00, -5.19823591e-01, 0.00000000e+00, 0.00000000e+00, 1.72897129e+04, 1.56421386e+04, 0.00000000e+00, -3.58290893e+00, -4.52979850e-01, -1.88156608e+00, 2.16751836e+00, 0.00000000e+00, -0.2326671644, 7.0033729766, -3.9244807512, 3.8847903472, 9.0000000000, 5.0000000000, 1.0941529261
         340, -2.15234808e-03, 4.16141111e-03, 0.00000000e+00, 0.00000000e+00, 0.00000000e+00, -1.61271060e-03, 4.16141111e-03, -2.15234808e-03, 0.00000000e+00, -5.17215922e-01, 0.00000000e+00, 0.00000000e+00, 1.71074142e+04, 1.54751059e+04, 0.00000000e+00, -3.59669273e+00, -4.65536064e-01, -1.91872136e+00, 2.15382094e+00, 0.00000000e+00, -0.6209508674, 6.9678054746, -4.0225282367, 4.7635051742, 9.0000000000, 5.0000000000, 1.1284412569
         350, -2.10247134e-03, 4.07749631e-03, 0.00000000e+00, 0.00000000e+00, 0.00000000e+00, -1.57567734e-03, 4.07749631e-03, -2.10247134e-03, 0.00000000e+00, -5.15628018e-01, 0.00000000e+00, 0.00000000e+00, 1.69520256e+04, 1.53202561e+04, 0.00000000e+00, -3.60959319e+00, -4.77167946e-01, -1.97688828e+00, 2.14126871e+00, 0.00000000e+00, -0.7727964530, 6.9336481460, -4.1133515730, 4.0400546817, 9.0000000000, 5.0000000000, 1.1627401409
         360, -2.05621143e-03, 3.99720284e-03, 0.00000000e+00, 0.00000000e+00, 0.00000000e+00, -1.54395799e-03, 3.99720284e-03, -2.05621143e-03, 0.00000000e+00, -5.14412581e-01, 0.00000000e+00, 0.00000000e+00, 1.68062678e+04, 1.51727638e+04, 0.00000000e+00, -3.62114724e+00, -4.87752217e-01, -2.03941530e+00, 2.13016117e+00, 0.00000000e+00, -0.9807139652, 6.9007669994, -4.1937757662, 2.9142934999, 9.0000000000, 5.0000000000, 1.1950478113
         370, -2.01084979e-03, 3.92025269e-03, 0.00000000e+00, 0.00000000e+00, 0.00000000e+00, -1.51282672e-03, 3.92025269e-03, -2.01084979e-03, 0.00000000e+00, -5.12938819e-01, 0.00000000e+00, 0.00000000e+00, 1.66571791e+04, 1.50288457e+04, 0.00000000e+00, -3.63147719e+00, -4.97517573e-01, -2.09018867e+00, 2.12020741e+00, 0.00000000e+00, -1.1051918126, 6.8690391349, -4.2345171774, 2.8696235707, 9.0000000000, 5.0000000000, 1.2269378135
         380, -1.96519165e-03, 3.84641680e-03, 0.00000000e+00, 0.00000000e+00, 0.00000000e+00, -1.47958804e-03, 3.84641680e-03, -1.96519165e-03, 0.00000000e+00, -5.10914898e-01, 0.00000000e+00, 0.00000000e+00, 1.65000050e+04, 1.48867261e+04, 0.00000000e+00, -3.64114364e+00, -5.06908982e-01, -2.12161030e+00, 2.11078486e+00, 0.00000000e+00, -1.2411411346, 6.8383516410, -4.2670624731, 2.8419684719, 8.0000000000, 5.0000000000, 1.2581809034
         390, -1.91974333e-03, 3.77550973e-03, 0.00000000e+00, 0.00000000e+00, 0.00000000e+00, -1.44447856e-03, 3.77550973e-03, -1.91974333e-03, 0.00000000e+00, -5.08472621e-01, 0.00000000e+00, 0.00000000e+00, 1.63381369e+04, 1.47470006e+04, 0.00000000e+00, -3.65068448e+00, -5.16283424e-01, -2.13724770e+00, 2.10136468e+00, 0.00000000e+00, -1.5950170385, 6.8086083581, -4.2812715512, 3.1902010247, 8.0000000000, 5.0000000000, 1.2887454555
         400, -1.87567195e-03, 3.70736922e-03, 0.00000000e+00, 0.00000000e+00, 0.00000000e+00, -1.40919979e-03, 3.70736922e-03, -1.87567195e-03, 0.00000000e+00, -5.05930712e-01, 0.00000000e+00, 0.00000000e+00, 1.61784365e+04, 1.46114512e+04, 0.00000000e+00, -3.66036960e+00, -5.25756846e-01, -2.14676258e+00, 2.09173163e+00, 0.00000000e+00, -1.7992438155, 6.7797318619, -4.2906364754, 2.7937047189, 8.0000000000, 5.0000000000, 1.3183868520
         410, -1.83385905e-03, 3.64184154e-03, 0.00000000e+00, 0.00000000e+00, 0.00000000e+00, -1.37534020e-03, 3.64184154e-03, -1.83385905e-03, 0.00000000e+00, -5.03552674e-01, 0.00000000e+00, 0.00000000e+00, 1.60263721e+04, 1.44814517e+04, 0.00000000e+00, -3.67020737e+00, -5.35269041e-01, -2.15845376e+00, 2.08193667e+00, 0.00000000e+00, -2.2639339961, 6.7516580276, -4.2916258599, 3.7193471245, 8.0000000000, 5.0000000000, 1.3478190078
         420, -1.79470800e-03, 3.57877926e-03, 0.00000000e+00, 0.00000000e+00, 0.00000000e+00, -1.34388518e-03, 3.57877926e-03, -1.79470800e-03, 0.00000000e+00, -5.01486084e-01, 0.00000000e+00, 0.00000000e+00, 1.58842509e+04, 1.43573626e+04, 0.00000000e+00, -3.68005022e+00, -5.44694162e-01, -2.17609917e+00, 2.07216007e+00, 0.00000000e+00, -2.6324435802, 6.7243311888, -4.2993868767, 3.2980122526, 8.0000000000, 5.0000000000, 1.3775813283
         430, -1.75817754e-03, 3.51804071e-03, 0.00000000e+00, 0.00000000e+00, 0.00000000e+00, -1.31512619e-03, 3.51804071e-03, -1.75817754e-03, 0.00000000e+00, -4.99760431e-01, 0.00000000e+00, 0.00000000e+00, 1.57515376e+04, 1.42386478e+04, 0.00000000e+00, -3.68969310e+00, -5.53900615e-01, -2.19935760e+00, 2.06260736e+00, 0.00000000e+00, -2.6023975778, 6.6977023386, -4.3056207674, 2.7255640835, 8.0000000000, 5.0000000000, 1.4069442969
         440, -1.72385293e-03, 3.45949024e-03, 0.00000000e+00, 0.00000000e+00, 0.00000000e+00, -1.28866368e-03, 3.45949024e-03, -1.72385293e-03, 0.00000000e+00, -4.98296805e-01, 0.00000000e+00, 0.00000000e+00, 1.56257832e+04, 1.41241825e+04, 0.00000000e+00, -3.69900808e+00, -5.62808400e-01, -2.22552352e+00, 2.05340135e+00, 0.00000000e+00, -2.9447237837, 6.6717274449, -4.3138507060, 2.7044661198, 8.0000000000, 5.0000000000, 1.4362867834
         450, -1.69116306e-03, 3.40300087e-03, 0.00000000e+00, 0.00000000e+00, 0.00000000e+00, -1.26372605e-03, 3.40300087e-03, -1.69116306e-03, 0.00000000e+00, -4.96962276e-01, 0.00000000e+00, 0.00000000e+00, 1.55040315e+04, 1.40127635e+04, 0.00000000e+00, -3.70795476e+00, -5.71410624e-01, -2.25145633e+00, 2.04456565e+00, 0.00000000e+00, -3.2978471176, 6.6463648779, -4.3243487128, 2.6818485891, 8.0000000000, 5.0000000000, 1.4661202059
         460, -1.65969090e-03, 3.34845740e-03, 0.00000000e+00, 0.00000000e+00, 0.00000000e+00, -1.23967714e-03, 3.34845740e-03, -1.65969090e-03, 0.00000000e+00, -4.95658357e-01, 0.00000000e+00, 0.00000000e+00, 1.53841362e+04, 1.39035298e+04, 0.00000000e+00, -3.71659021e+00, -5.79762313e-01, -2.27488781e+00, 2.03603099e+00, 0.00000000e+00, -3.2743039175, 6.6215756948, -4.3375977692, 2.6613339959, 8.0000000000, 5.0000000000, 1.4954961630
         470, -1.62924678e-03, 3.29575576e-03, 0.00000000e+00, 0.00000000e+00, 0.00000000e+00, -1.21622042e-03, 3.29575576e-03, -1.62924678e-03, 0.00000000e+00, -4.94346940e-01, 0.00000000e+00, 0.00000000e+00, 1.52652812e+04, 1.37961010e+04, 0.00000000e+00, -3.72500374e+00, -5.87930569e-01, -2.29521576e+00, 2.02770415e+00, 0.00000000e+00, -3.6522202590, 6.5973245280, -4.3427382036, 2.6414860102, 8.0000000000, 5.0000000000, 1.5248780292
         480, -1.59981046e-03, 3.24480110e-03, 0.00000000e+00, 0.00000000e+00, 0.00000000e+00, -1.19333923e-03, 3.24480110e-03, -1.59981046e-03, 0.00000000e+00, -4.93038067e-01, 0.00000000e+00, 0.00000000e+00, 1.51476471e+04, 1.36904484e+04, 0.00000000e+00, -3.73327005e+00, -5.95962965e-01, -2.31331184e+00, 2.01951564e+00, 0.00000000e+00, -3.6251869224, 6.5735798655, -4.3486318290, 2.6220701822, 8.0000000000, 5.0000000000, 1.5542160267
         490, -1.57142859e-03, 3.19550582e-03, 0.00000000e+00, 0.00000000e+00, 0.00000000e+00, -1.17115096e-03, 3.19550582e-03, -1.57142859e-03, 0.00000000e+00, -4.91762079e-01, 0.00000000e+00, 0.00000000e+00, 1.50318110e+04, 1.35866865e+04, 0.00000000e+00, -3.74142006e+00, -6.03879246e-01, -2.33051205e+00, 2.01143132e+00, 0.00000000e+00, -3.5741014946, 6.5503135756, -4.3559594397, 2.6341356167, 8.0000000000, 5.0000000000, 1.5834994694
         500, -1.54415928e-03, 3.14778837e-03, 0.00000000e+00, 0.00000000e+00, 0.00000000e+00, -1.14980094e-03, 3.14778837e-03, -1.54415928e-03, 0.00000000e+00, -4.90553717e-01, 0.00000000e+00, 0.00000000e+00, 1.49183147e+04, 1.34849316e+04, 0.00000000e+00, -3.74945954e+00, -6.11676841e-01, -2.34774168e+00, 2.00345854e+00, 0.00000000e+00, -4.0014846818, 6.5275005965, -4.3635593022, 3.0679596349, 8.0000000000, 5.0000000000, 1.6128613997
         510, -1.51798355e-03, 3.10157159e-03, 0.00000000e+00, 0.00000000e+00, 0.00000000e+00, -1.12934267e-03, 3.10157159e-03, -1.51798355e-03, 0.00000000e+00, -4.89423991e-01, 0.00000000e+00, 0.00000000e+00, 1.48073213e+04, 1.33851572e+04, 0.00000000e+00, -3.75736844e+00, -6.19342863e-01, -2.36533046e+00, 1.99561654e+00, 0.00000000e+00, -3.9703664992, 6.5051181440, -4.3712882594, 2.5656440297, 8.0000000000, 5.0000000000, 1.6427767756
         520, -1.49285135e-03, 3.05678314e-03, 0.00000000e+00, 0.00000000e+00, 0.00000000e+00, -1.10975231e-03, 3.05678314e-03, -1.49285135e-03, 0.00000000e+00, -4.88373327e-01, 0.00000000e+00, 0.00000000e+00, 1.46987002e+04, 1.32872503e+04, 0.00000000e+00, -3.76512578e+00, -6.26865390e-01, -2.38313510e+00, 1.98792561e+00, 0.00000000e+00, -4.3997103081, 6.4831453097, -4.3802941980, 2.5476694764, 8.0000000000, 5.0000000000, 1.6721269972
         530, -1.46867089e-03, 3.01335485e-03, 0.00000000e+00, 0.00000000e+00, 0.00000000e+00, -1.09093677e-03, 3.01335485e-03, -1.46867089e-03, 0.00000000e+00, -4.87387300e-01, 0.00000000e+00, 0.00000000e+00, 1.45921352e+04, 1.31910420e+04, 0.00000000e+00, -3.77272697e+00, -6.34242374e-01, -2.40080030e+00, 1.98039027e+00, 0.00000000e+00, -4.3579052953, 6.4615626965, -4.3908187037, 2.5300239191, 8.0000000000, 5.0000000000, 1.7014480709
         540, -1.44535255e-03, 2.97122301e-03, 0.00000000e+00, 0.00000000e+00, 0.00000000e+00, -1.07279308e-03, 2.97122301e-03, -1.44535255e-03, 0.00000000e+00, -4.86450374e-01, 0.00000000e+00, 0.00000000e+00, 1.44873019e+04, 1.30963728e+04, 0.00000000e+00, -3.78017526e+00, -6.41479378e-01, -2.41799495e+00, 1.97300597e+00, 0.00000000e+00, -4.3090323000, 6.4403521595, -4.4017358226, 2.5127461958, 8.0000000000, 5.0000000000, 1.7308373846
         550, -1.42282771e-03, 2.93032809e-03, 0.00000000e+00, 0.00000000e+00, 0.00000000e+00, -1.05524561e-03, 2.93032809e-03, -1.42282771e-03, 0.00000000e+00, -4.85552356e-01, 0.00000000e+00, 0.00000000e+00, 1.43839783e+04, 1.30031228e+04, 0.00000000e+00, -3.78748553e+00, -6.48587169e-01, -2.43457153e+00, 1.96576092e+00, 0.00000000e+00, -4.5625023323, 6.4194968718, -4.4134071258, 2.4957588564, 8.0000000000, 5.0000000000, 1.7601654900
         560, -1.40104666e-03, 2.89061440e-03, 0.00000000e+00, 0.00000000e+00, 0.00000000e+00, -1.03824740e-03, 2.89061440e-03, -1.40104666e-03, 0.00000000e+00, -4.84688189e-01, 0.00000000e+00, 0.00000000e+00, 1.42820639e+04, 1.29112246e+04, 0.00000000e+00, -3.79466419e+00, -6.55575345e-01, -2.45059457e+00, 1.95863710e+00, 0.00000000e+00, -4.4837406460, 6.3989811894, -4.4262813373, 2.4790192352, 8.0000000000, 5.0000000000, 1.7895248186
         570, -1.37999054e-03, 2.85202995e-03, 0.00000000e+00, 0.00000000e+00, 0.00000000e+00, -1.02178827e-03, 2.85202995e-03, -1.37999054e-03, 0.00000000e+00, -4.83862571e-01, 0.00000000e+00, 0.00000000e+00, 1.41815779e+04, 1.28206602e+04, 0.00000000e+00, -3.80172840e+00, -6.62451294e-01, -2.46618494e+00, 1.95162998e+00, 0.00000000e+00, -4.4046959113, 6.3787907838, -4.4381791972, 2.4625871598, 8.0000000000, 5.0000000000, 1.8188376627
         580, -1.35961620e-03, 2.81452546e-03, 0.00000000e+00, 0.00000000e+00, 0.00000000e+00, -1.00584360e-03, 2.81452546e-03, -1.35961620e-03, 0.00000000e+00, -4.83071201e-01, 0.00000000e+00, 0.00000000e+00, 1.40824938e+04, 1.27313850e+04, 0.00000000e+00, -3.80868144e+00, -6.69219439e-01, -2.48149411e+00, 1.94473293e+00, 0.00000000e+00, -4.6511086337, 6.3589122696, -4.4554633524, 2.4503659239, 8.0000000000, 5.0000000000, 1.8488883313
         590, -1.33990653e-03, 2.77805489e-03, 0.00000000e+00, 0.00000000e+00, 0.00000000e+00, -9.90407730e-04, 2.77805489e-03, -1.33990653e-03, 0.00000000e+00, -4.82318233e-01, 0.00000000e+00, 0.00000000e+00, 1.39848138e+04, 1.26433741e+04, 0.00000000e+00, -3.81552284e+00, -6.75881651e-01, -2.49659381e+00, 1.93794562e+00, 0.00000000e+00, -4.9536677064, 6.3393332091, -4.4712559908, 2.4299081468, 8.0000000000, 5.0000000000, 1.8782666418
         600, -1.32083142e-03, 2.74257462e-03, 0.00000000e+00, 0.00000000e+00, 0.00000000e+00, -9.75461338e-04, 2.74257462e-03, -1.32083142e-03, 0.00000000e+00, -4.81602731e-01, 0.00000000e+00, 0.00000000e+00, 1.38885150e+04, 1.25565955e+04, 0.00000000e+00, -3.82225754e+00, -6.82440212e-01, -2.51149980e+00, 1.93126463e+00, 0.00000000e+00, -4.8794670412, 6.3200420795, -4.4884816213, 2.4142083427, 8.0000000000, 5.0000000000, 1.9076278259
         610, -1.30235713e-03, 2.70804346e-03, 0.00000000e+00, 0.00000000e+00, 0.00000000e+00, -9.60976148e-04, 2.70804346e-03, -1.30235713e-03, 0.00000000e+00, -4.80921798e-01, 0.00000000e+00, 0.00000000e+00, 1.37935432e+04, 1.24710082e+04, 0.00000000e+00, -3.82888524e+00, -6.88896754e-01, -2.52617878e+00, 1.92468967e+00, 0.00000000e+00, -4.8092749504, 6.3010280119, -4.5056777507, 2.3986456905, 8.0000000000, 5.0000000000, 1.9369283882
         620, -1.28445380e-03, 2.67442254e-03, 0.00000000e+00, 0.00000000e+00, 0.00000000e+00, -9.46926857e-04, 2.67442254e-03, -1.28445380e-03, 0.00000000e+00, -4.80273325e-01, 0.00000000e+00, 0.00000000e+00, 1.36998407e+04, 1.23865683e+04, 0.00000000e+00, -3.83540939e+00, -6.95254404e-01, -2.54058963e+00, 1.91821766e+00, 0.00000000e+00, -4.7384571774, 6.2822808255, -4.5233384899, 2.3833210049, 8.0000000000, 5.0000000000, 1.9663109067
         630, -1.26709129e-03, 2.64167516e-03, 0.00000000e+00, 0.00000000e+00, 0.00000000e+00, -9.33288409e-04, 2.64167516e-03, -1.26709129e-03, 0.00000000e+00, -4.79654466e-01, 0.00000000e+00, 0.00000000e+00, 1.36073545e+04, 1.23032387e+04, 0.00000000e+00, -3.84183924e+00, -7.01517711e-01, -2.55472109e+00, 1.91184293e+00, 0.00000000e+00, -4.7139511714, 6.2637909674, -4.5397234960, 2.3682606082, 8.0000000000, 5.0000000000, 1.9957387093
         640, -1.25024332e-03, 2.60976665e-03, 0.00000000e+00, 0.00000000e+00, 0.00000000e+00, -9.20038047e-04, 2.60976665e-03, -1.25024332e-03, 0.00000000e+00, -4.79063263e-01, 0.00000000e+00, 0.00000000e+00, 1.35160503e+04, 1.22209942e+04, 0.00000000e+00, -3.84816022e+00, -7.07686762e-01, -2.56861157e+00, 1.90556697e+00, 0.00000000e+00, -4.6356246949, 6.2455493218, -4.5579638491, 2.3534709625, 8.0000000000, 5.0000000000, 2.0251228169
         650, -1.23389832e-03, 2.57866429e-03, 0.00000000e+00, 0.00000000e+00, 0.00000000e+00, -9.07169278e-04, 2.57866429e-03, -1.23389832e-03, 0.00000000e+00, -4.78502891e-01, 0.00000000e+00, 0.00000000e+00, 1.34259181e+04, 1.21398145e+04, 0.00000000e+00, -3.85439607e+00, -7.13767912e-01, -2.58223219e+00, 1.89937969e+00, 0.00000000e+00, -4.5572015055, 6.2275476201, -4.5767284780, 2.3387925606, 8.0000000000, 5.0000000000, 2.0544714517
         660, -1.21801771e-03, 2.54833680e-03, 0.00000000e+00, 0.00000000e+00, 0.00000000e+00, -8.94650617e-04, 2.54833680e-03, -1.21801771e-03, 0.00000000e+00, -4.77965751e-01, 0.00000000e+00, 0.00000000e+00, 1.33369087e+04, 1.20596650e+04, 0.00000000e+00, -3.86054327e+00, -7.19763090e-01, -2.59564281e+00, 1.89328064e+00, 0.00000000e+00, -4.9608892728, 6.2097777408, -4.5932226777, 2.4720070591, 8.0000000000, 5.0000000000, 2.0841311770