TITLE = "SU2 Simulation"
VARIABLES = "Iteration","CL","CD","CSF","CMx","CMy","CMz","CFx","CFy","CFz","CL/CD","AoA","Custom_ObjFunc","HeatFlux_Total","HeatFlux_Maximum","Temperature_Total","Res_Flow[0]","Res_Flow[1]","Res_Flow[2]","Res_Flow[3]","Res_Flow[4]","Res_Turb[0]","Res_Turb[1]","Linear_Solver_Iterations","CFL_Number","Time(min)"
ZONE T= "Convergence history"
           0, -4.17610926e-01, 1.14682381e-01, 0.00000000e+00, 0.00000000e+00, 0.00000000e+00, -3.13214255e-01, 1.14682381e-01, -4.17610926e-01, 0.00000000e+00, -3.64145671e+00, 0.00000000e+00, 0.00000000e+00, -1.55541583e+07, 1.40108238e+07, 0.00000000e+00, -1.56622260e+01, -6.11260646e+00, -6.57313479e+00, 4.72224245e+00, 0.00000000e+00, -3.1763975707, 7.4559259313, 1.0000000000, 2.5000000000, 0.0011437734
          10, -3.82733343e-02, 2.89081162e-02, 0.00000000e+00, 0.00000000e+00, 0.00000000e+00, -2.87189396e-02, 2.89081162e-02, -3.82733343e-02, 0.00000000e+00, -1.32396501e+00, 0.00000000e+00, 0.00000000e+00, -3.16552166e+05, 3.02579218e+05, 0.00000000e+00, -1.50257308e+00, 1.39114362e+00, 9.97761443e-01, 4.25762577e+00, 0.00000000e+00, -3.7472633083, 7.7653713900, 3.0000000000, 4.3176767868, 0.0123575052
          20, -6.52817721e-03, 2.00108108e-02, 0.00000000e+00, 0.00000000e+00, 0.00000000e+00, -4.88981735e-03, 2.00108108e-02, -6.52817721e-03, 0.00000000e+00, -3.26232519e-01, 0.00000000e+00, 0.00000000e+00, -1.07279149e+05, 1.34742540e+05, 0.00000000e+00, -1.92067369e+00, 9.44669332e-01, 6.44882297e-01, 3.82958311e+00, 0.00000000e+00, -3.9115275323, 6.3880024553, 6.0000000000, 7.1525762330, 0.0246331016
          30, -4.29128649e-03, 1.56684376e-02, 0.00000000e+00, 0.00000000e+00, 0.00000000e+00, -3.20970630e-03, 1.56684376e-02, -4.29128649e-03, 0.00000000e+00, -2.73880945e-01, 0.00000000e+00, 0.00000000e+00, -6.41121287e+04, 7.30410600e+04, 0.00000000e+00, -2.06130568e+00, 7.83494832e-01, 5.00113692e-01, 3.67217649e+00, 0.00000000e+00, -4.0022482240, 5.6436213799, 6.0000000000, 8.6500006009, 0.0377970060
          40, -3.94580984e-03, 1.29539538e-02, 0.00000000e+00, 0.00000000e+00, 0.00000000e+00, -2.94057959e-03, 1.29539538e-02, -3.94580984e-03, 0.00000000e+00, -3.04602742e-01, 0.00000000e+00, 0.00000000e+00, -3.02538090e+04, 4.38658428e+04, 0.00000000e+00, -2.12598062e+00, 6.87933801e-01, 4.28082454e-01, 3.58142241e+00, 0.00000000e+00, -4.0498919688, 5.3826690147, 6.0000000000, 9.2628746773, 0.0509175221
          50, -3.63348505e-03, 1.09840244e-02, 0.00000000e+00, 0.00000000e+00, 0.00000000e+00, -2.58435626e-03, 1.09840244e-02, -3.63348505e-03, 0.00000000e+00, -3.30797249e-01, 0.00000000e+00, 0.00000000e+00, -1.16593136e+04, 3.13799469e+04, 0.00000000e+00, -2.30267403e+00, 5.01996834e-01, 2.39787094e-01, 3.38909437e+00, 0.00000000e+00, -4.0706013105, 5.2702733129, 6.0000000000, 11.1476261010, 0.0637964964
          60, -4.18697987e-03, 9.27189399e-03, 0.00000000e+00, 0.00000000e+00, 0.00000000e+00, -3.14944812e-03, 9.27189399e-03, -4.18697987e-03, 0.00000000e+00, -4.51577625e-01, 0.00000000e+00, 0.00000000e+00, 2.90936053e+03, 2.33162426e+04, 0.00000000e+00, -2.66239668e+00, 1.82197071e-01, -1.67139945e-01, 3.02580009e+00, 0.00000000e+00, -4.3488998551, 5.0960856991, 8.0000000000, 16.4695867035, 0.0771853089
          70, -4.34013767e-03, 7.45676730e-03, 0.00000000e+00, 0.00000000e+00, 0.00000000e+00, -3.12681147e-03, 7.45676730e-03, -4.34013767e-03, 0.00000000e+00, -5.82040111e-01, 0.00000000e+00, 0.00000000e+00, 9.46618636e+03, 1.79897912e+04, 0.00000000e+00, -3.14031964e+00, -1.12687062e-01, -8.61274402e-01, 2.58334343e+00, 0.00000000e+00, -4.9741584649, 5.1256349014, 11.0000000000, 28.7922439461, 0.0921568036
          80, -3.17820826e-03, 5.81975712e-03, 0.00000000e+00, 0.00000000e+00, 0.00000000e+00, -2.42071877e-03, 5.81975712e-03, -3.17820826e-03, 0.00000000e+00, -5.46106682e-01, 0.00000000e+00, 0.00000000e+00, 9.98565915e+03, 1.53012556e+04, 0.00000000e+00, -3.35328229e+00, -2.56252525e-01, -1.49416523e+00, 2.39591491e+00, 0.00000000e+00, -5.0331390690, 4.9256989429, 12.0000000000, 37.9107197600, 0.1080430269
          90, -2.39418652e-03, 4.66695373e-03, 0.00000000e+00, 0.00000000e+00, 0.00000000e+00, -1.79765920e-03, 4.66695373e-03, -2.39418652e-03, 0.00000000e+00, -5.13008410e-01, 0.00000000e+00, 0.00000000e+00, 1.22801367e+04, 1.48576492e+04, 0.00000000e+00, -3.49013690e+00, -3.86508886e-01, -1.68001440e+00, 2.25817530e+00, 0.00000000e+00, -4.9037132450, 4.6260070231, 13.0000000000, 44.3882486507, 0.1242169420
         100, -1.86947971e-03, 3.82731553e-03, 0.00000000e+00, 0.00000000e+00, 0.00000000e+00, -1.39319021e-03, 3.82731553e-03, -1.86947971e-03, 0.00000000e+00, -4.88457170e-01, 0.00000000e+00, 0.00000000e+00, 1.30945128e+04, 1.56873353e+04, 0.00000000e+00, -3.60384931e+00, -4.94402499e-01, -1.94211803e+00, 2.14638166e+00, 0.00000000e+00, -4.3874160776, 4.4925897156, 13.0000000000, 50.7081260247, 0.1405362805
         110, -1.51558787e-03, 3.19702047e-03, 0.00000000e+00, 0.00000000e+00, 0.00000000e+00, -1.11748094e-03, 3.19702047e-03, -1.51558787e-03, 0.00000000e+00, -4.74062609e-01, 0.00000000e+00, 0.00000000e+00, 1.31191364e+04, 1.67015217e+04, 0.00000000e+00, -3.70225159e+00, -5.90265747e-01, -2.14921609e+00, 2.04854846e+00, 0.00000000e+00, -3.5882614229, 4.3299284444, 13.0000000000, 56.9229669599, 0.1570813934
         120, -1.26356151e-03, 2.71165239e-03, 0.00000000e+00, 0.00000000e+00, 0.00000000e+00, -9.19351564e-04, 2.71165239e-03, -1.26356151e-03, 0.00000000e+00, -4.65974737e-01, 0.00000000e+00, 0.00000000e+00, 1.26718520e+04, 1.73075436e+04, 0.00000000e+00, -3.78929902e+00, -6.76051598e-01, -2.30825278e+00, 1.96163076e+00, 0.00000000e+00, -2.6501907766, 4.1960308663, 13.0000000000, 62.9613968354, 0.1737117926
         130, -1.07725353e-03, 2.32991092e-03, 0.00000000e+00, 0.00000000e+00, 0.00000000e+00, -7.71057780e-04, 2.32991092e-03, -1.07725353e-03, 0.00000000e+00, -4.62358250e-01, 0.00000000e+00, 0.00000000e+00, 1.19925858e+04, 1.75204696e+04, 0.00000000e+00, -3.86630748e+00, -7.53181890e-01, -2.44003544e+00, 1.88459762e+00, 0.00000000e+00, -1.5953390834, 4.0746918307, 13.0000000000, 68.8946190392, 0.1903858344
         140, -9.45585721e-04, 2.02537527e-03, 0.00000000e+00, 0.00000000e+00, 0.00000000e+00, -6.63733256e-04, 2.02537527e-03, -9.45585721e-04, 0.00000000e+00, -4.66869391e-01, 0.00000000e+00, 0.00000000e+00, 1.12449970e+04, 1.75868029e+04, 0.00000000e+00, -3.92871881e+00, -8.19200372e-01, -2.60432797e+00, 1.82116320e+00, 0.00000000e+00, -0.4604955087, 4.0161004333, 15.0000000000, 74.2428937226, 0.2072778662
         150, -9.70027124e-04, 1.79770745e-03, 0.00000000e+00, 0.00000000e+00, 0.00000000e+00, -6.73232637e-04, 1.79770745e-03, -9.70027124e-04, 0.00000000e+00, -5.39591202e-01, 0.00000000e+00, 0.00000000e+00, 1.08507840e+04, 1.76095078e+04, 0.00000000e+00, -3.86530334e+00, -7.73897237e-01, -2.18244638e+00, 1.88104263e+00, 0.00000000e+00, 0.4833221515, 4.1300296859, 15.0000000000, 63.1362214152, 0.2252521753
         160, -1.20665923e-03, 1.69475227e-03, 0.00000000e+00, 0.00000000e+00, 0.00000000e+00, -8.42203528e-04, 1.69475227e-03, -1.20665923e-03, 0.00000000e+00, -7.11997410e-01, 0.00000000e+00, 0.00000000e+00, 1.09079512e+04, 1.76184252e+04, 0.00000000e+00, -3.72677995e+00, -6.48427710e-01, -2.06585736e+00, 2.01624225e+00, 0.00000000e+00, 0.5843453746, 3.6934404125, 12.0000000000, 37.2688041383, 0.2431487918
         170, -1.40569134e-03, 1.66203136e-03, 0.00000000e+00, 0.00000000e+00, 0.00000000e+00, -9.82453039e-04, 1.66203136e-03, -1.40569134e-03, 0.00000000e+00, -8.45767040e-01, 0.00000000e+00, 0.00000000e+00, 1.01460176e+04, 1.76255148e+04, 0.00000000e+00, -3.67611254e+00, -5.98997980e-01, -2.07039066e+00, 2.06360733e+00, 0.00000000e+00, 0.5431734801, 3.7183753997, 10.0000000000, 30.9469769949, 0.2588019172
         180, -1.57405612e-03, 1.69029204e-03, 0.00000000e+00, 0.00000000e+00, 0.00000000e+00, -1.09912536e-03, 1.69029204e-03, -1.57405612e-03, 0.00000000e+00, -9.31233232e-01, 0.00000000e+00, 0.00000000e+00, 9.00874924e+03, 1.76250939e+04, 0.00000000e+00, -3.64563623e+00, -5.68719999e-01, -2.09780972e+00, 2.09212581e+00, 0.00000000e+00, 0.4908063096, 3.6916296216, 10.0000000000, 27.8487519570, 0.2738334934
         190, -1.70489843e-03, 1.76574722e-03, 0.00000000e+00, 0.00000000e+00, 0.00000000e+00, -1.18703501e-03, 1.76574722e-03, -1.70489843e-03, 0.00000000e+00, -9.65539354e-01, 0.00000000e+00, 0.00000000e+00, 7.97720590e+03, 1.76356725e+04, 0.00000000e+00, -3.63128691e+00, -5.54005732e-01, -2.15566631e+00, 2.10400348e+00, 0.00000000e+00, 0.4177272829, 3.6419044837, 9.0000000000, 26.3755230996, 0.2887813846
         200, -1.79750778e-03, 1.86682240e-03, 0.00000000e+00, 0.00000000e+00, 0.00000000e+00, -1.24507421e-03, 1.86682240e-03, -1.79750778e-03, 0.00000000e+00, -9.62870265e-01, 0.00000000e+00, 0.00000000e+00, 7.25034093e+03, 1.76937676e+04, 0.00000000e+00, -3.62409997e+00, -5.49163403e-01, -2.16442906e+00, 2.10917268e+00, 0.00000000e+00, 0.3317634557, 3.6082755450, 9.0000000000, 25.6139794359, 0.3034790397
         210, -1.86127887e-03, 1.97430180e-03, 0.00000000e+00, 0.00000000e+00, 0.00000000e+00, -1.27993691e-03, 1.97430180e-03, -1.86127887e-03, 0.00000000e+00, -9.42752966e-01, 0.00000000e+00, 0.00000000e+00, 6.87308772e+03, 1.77771684e+04, 0.00000000e+00, -3.62549674e+00, -5.52736656e-01, -2.22739581e+00, 2.10574866e+00, 0.00000000e+00, 0.2428837553, 3.5847939553, 9.0000000000, 25.5881955468, 0.3181540767
         220, -1.90411528e-03, 2.07544673e-03, 0.00000000e+00, 0.00000000e+00, 0.00000000e+00, -1.29727195e-03, 2.07544673e-03, -1.90411528e-03, 0.00000000e+00, -9.17448401e-01, 0.00000000e+00, 0.00000000e+00, 6.75592326e+03, 1.78508352e+04, 0.00000000e+00, -3.63375972e+00, -5.62987985e-01, -2.22396481e+00, 2.09613324e+00, 0.00000000e+00, 0.1495728401, 3.5652107256, 9.0000000000, 25.7418582684, 0.3328848322
         230, -1.93062715e-03, 2.16422455e-03, 0.00000000e+00, 0.00000000e+00, 0.00000000e+00, -1.30008120e-03, 2.16422455e-03, -1.93062715e-03, 0.00000000e+00, -8.92064157e-01, 0.00000000e+00, 0.00000000e+00, 6.78560349e+03, 1.79008800e+04, 0.00000000e+00, -3.64704817e+00, -5.77960974e-01, -2.25435793e+00, 2.08187520e+00, 0.00000000e+00, 0.0674570363, 3.5160903412, 9.0000000000, 26.1412404057, 0.3474035462
         240, -1.94595371e-03, 2.23843886e-03, 0.00000000e+00, 0.00000000e+00, 0.00000000e+00, -1.29190190e-03, 2.23843886e-03, -1.94595371e-03, 0.00000000e+00, -8.69335206e-01, 0.00000000e+00, 0.00000000e+00, 6.88973789e+03, 1.79285185e+04, 0.00000000e+00, -3.66686763e+00, -5.98188807e-01, -2.26377347e+00, 2.06135380e+00, 0.00000000e+00, 0.0167197247, 3.4575294288, 9.0000000000, 26.7203153522, 0.3623543183
         250, -1.95401951e-03, 2.29787166e-03, 0.00000000e+00, 0.00000000e+00, 0.00000000e+00, -1.27545192e-03, 2.29787166e-03, -1.95401951e-03, 0.00000000e+00, -8.50360594e-01, 0.00000000e+00, 0.00000000e+00, 7.02731727e+03, 1.79362152e+04, 0.00000000e+00, -3.68891268e+00, -6.20919834e-01, -2.28454798e+00, 2.03899995e+00, 0.00000000e+00, 0.0068391541, 3.3840772405, 9.0000000000, 27.3911672535, 0.3769103726
         260, -1.95804473e-03, 2.34312254e-03, 0.00000000e+00, 0.00000000e+00, 0.00000000e+00, -1.25297545e-03, 2.34312254e-03, -1.95804473e-03, 0.00000000e+00, -8.35656137e-01, 0.00000000e+00, 0.00000000e+00, 7.18124743e+03, 1.79223270e+04, 0.00000000e+00, -3.71444649e+00, -6.46676217e-01, -2.32189265e+00, 2.01309068e+00, 0.00000000e+00, 0.0211262939, 3.3013214314, 9.0000000000, 28.2189611461, 0.3918676058
         270, -1.96103960e-03, 2.37497125e-03, 0.00000000e+00, 0.00000000e+00, 0.00000000e+00, -1.22679958e-03, 2.37497125e-03, -1.96103960e-03, 0.00000000e+00, -8.25710878e-01, 0.00000000e+00, 0.00000000e+00, 7.34863742e+03, 1.78898110e+04, 0.00000000e+00, -3.74332918e+00, -6.75214087e-01, -2.33116274e+00, 1.98428634e+00, 0.00000000e+00, 0.0378129747, 3.2208799189, 9.0000000000, 29.1412083874, 0.4065877477
         280, -1.96597614e-03, 2.39426636e-03, 0.00000000e+00, 0.00000000e+00, 0.00000000e+00, -1.19951867e-03, 2.39426636e-03, -1.96597614e-03, 0.00000000e+00, -8.21118390e-01, 0.00000000e+00, 0.00000000e+00, 7.53100351e+03, 1.78457307e+04, 0.00000000e+00, -3.77492461e+00, -7.05961486e-01, -2.36925036e+00, 1.95337252e+00, 0.00000000e+00, 0.0414338581, 3.1181235502, 9.0000000000, 30.2151209138, 0.4226384044
         290, -1.97607858e-03, 2.40176217e-03, 0.00000000e+00, 0.00000000e+00, 0.00000000e+00, -1.17448394e-03, 2.40176217e-03, -1.97607858e-03, 0.00000000e+00, -8.22761975e-01, 0.00000000e+00, 0.00000000e+00, 7.72930961e+03, 1.77985202e+04, 0.00000000e+00, -3.81294024e+00, -7.41493557e-01, -2.41298277e+00, 1.91673317e+00, 0.00000000e+00, 0.0285456258, 3.0257458858, 9.0000000000, 31.5513058073, 0.4381206989
         300, -1.99469863e-03, 2.39814025e-03, 0.00000000e+00, 0.00000000e+00, 0.00000000e+00, -1.15595230e-03, 2.39814025e-03, -1.99469863e-03, 0.00000000e+00, -8.31768963e-01, 0.00000000e+00, 0.00000000e+00, 7.93490765e+03, 1.77552496e+04, 0.00000000e+00, -3.85907642e+00, -7.83582703e-01, -2.44869327e+00, 1.87315984e+00, 0.00000000e+00, 0.0000009867, 2.9579299235, 10.0000000000, 33.2157838472, 0.4538803458
         310, -2.02546452e-03, 2.38414216e-03, 0.00000000e+00, 0.00000000e+00, 0.00000000e+00, -1.14960543e-03, 2.38414216e-03, -2.02546452e-03, 0.00000000e+00, -8.49556940e-01, 0.00000000e+00, 0.00000000e+00, 8.12971658e+03, 1.77191744e+04, 0.00000000e+00, -3.91882028e+00, -8.36158470e-01, -2.49960700e+00, 1.81802696e+00, 0.00000000e+00, -0.0424046613, 2.9632911382, 10.0000000000, 35.5298361845, 0.4709485412
         320, -2.07208544e-03, 2.36053132e-03, 0.00000000e+00, 0.00000000e+00, 0.00000000e+00, -1.16279663e-03, 2.36053132e-03, -2.07208544e-03, 0.00000000e+00, -8.77804680e-01, 0.00000000e+00, 0.00000000e+00, 8.29143424e+03, 1.76901221e+04, 0.00000000e+00, -3.99938532e+00, -9.03747226e-01, -2.55937922e+00, 1.74587285e+00, 0.00000000e+00, -0.0987651936, 3.0526662802, 10.0000000000, 38.8683084018, 0.4872122765
         330, -2.13599698e-03, 2.32786495e-03, 0.00000000e+00, 0.00000000e+00, 0.00000000e+00, -1.20113514e-03, 2.32786495e-03, -2.13599698e-03, 0.00000000e+00, -9.17577702e-01, 0.00000000e+00, 0.00000000e+00, 8.38892971e+03, 1.76681227e+04, 0.00000000e+00, -4.10072809e+00, -9.84841793e-01, -2.62945306e+00, 1.65796267e+00, 0.00000000e+00, -0.1693716982, 3.1153142288, 11.0000000000, 43.5981841531, 0.5039175987
         340, -2.20999473e-03, 2.28691223e-03, 0.00000000e+00, 0.00000000e+00, 0.00000000e+00, -1.25703511e-03, 2.28691223e-03, -2.20999473e-03, 0.00000000e+00, -9.66366224e-01, 0.00000000e+00, 0.00000000e+00, 8.37447353e+03, 1.76527857e+04, 0.00000000e+00, -4.20613462e+00, -1.06636708e+00, -2.71431357e+00, 1.56836130e+00, 0.00000000e+00, -0.2536294093, 3.1189089730, 11.0000000000, 49.2573430750, 0.5192473610
         350, -2.28303197e-03, 2.23966529e-03, 0.00000000e+00, 0.00000000e+00, 0.00000000e+00, -1.31471330e-03, 2.23966529e-03, -2.28303197e-03, 0.00000000e+00, -1.01936302e+00, 0.00000000e+00, 0.00000000e+00, 8.22713159e+03, 1.76426152e+04, 0.00000000e+00, -4.30196353e+00, -1.14029221e+00, -2.78833628e+00, 1.48720989e+00, 0.00000000e+00, -0.3474412739, 3.1868689893, 12.0000000000, 55.0653773537, 0.5355274518
         360, -2.35163374e-03, 2.18906785e-03, 0.00000000e+00, 0.00000000e+00, 0.00000000e+00, -1.36825380e-03, 2.18906785e-03, -2.35163374e-03, 0.00000000e+00, -1.07426261e+00, 0.00000000e+00, 0.00000000e+00, 7.96270550e+03, 1.76366790e+04, 0.00000000e+00, -4.39010093e+00, -1.20917567e+00, -2.84777589e+00, 1.41256506e+00, 0.00000000e+00, -0.4366105836, 3.2641542767, 12.0000000000, 60.9873061812, 0.5512154738
         370, -2.41699637e-03, 2.13819427e-03, 0.00000000e+00, 0.00000000e+00, 0.00000000e+00, -1.41866773e-03, 2.13819427e-03, -2.41699637e-03, 0.00000000e+00, -1.13039138e+00, 0.00000000e+00, 0.00000000e+00, 7.59606393e+03, 1.76337567e+04, 0.00000000e+00, -4.47341776e+00, -1.27559186e+00, -2.90333378e+00, 1.34223699e+00, 0.00000000e+00, -0.5003794582, 3.3253541791, 13.0000000000, 67.1619422441, 0.5673489014
         380, -2.48080124e-03, 2.08988912e-03, 0.00000000e+00, 0.00000000e+00, 0.00000000e+00, -1.46803798e-03, 2.08988912e-03, -2.48080124e-03, 0.00000000e+00, -1.18704921e+00, 0.00000000e+00, 0.00000000e+00, 7.13605754e+03, 1.76333397e+04, 0.00000000e+00, -4.55308387e+00, -1.34075455e+00, -2.95478333e+00, 1.27520254e+00, 0.00000000e+00, -0.5330223535, 3.3699959285, 14.0000000000, 73.6438424624, 0.5840074579
         390, -2.54407388e-03, 2.04642992e-03, 0.00000000e+00, 0.00000000e+00, 0.00000000e+00, -1.51780633e-03, 2.04642992e-03, -2.54407388e-03, 0.00000000e+00, -1.24317665e+00, 0.00000000e+00, 0.00000000e+00, 6.59378207e+03, 1.76350990e+04, 0.00000000e+00, -4.62971266e+00, -1.40524951e+00, -3.00129455e+00, 1.21072709e+00, 0.00000000e+00, -0.5508813660, 3.3965610314, 15.0000000000, 80.4567634668, 0.6007244468
         400, -2.60694970e-03, 2.00914408e-03, 0.00000000e+00, 0.00000000e+00, 0.00000000e+00, -1.56831773e-03, 2.00914408e-03, -2.60694970e-03, 0.00000000e+00, -1.29754243e+00, 0.00000000e+00, 0.00000000e+00, 5.98606047e+03, 1.76388727e+04, 0.00000000e+00, -4.70448668e+00, -1.46971827e+00, -3.04684289e+00, 1.14759266e+00, 0.00000000e+00, -0.5714186512, 3.4100192604, 15.0000000000, 87.7049080259, 0.6178916295
         410, -2.66908661e-03, 1.97825691e-03, 0.00000000e+00, 0.00000000e+00, 0.00000000e+00, -1.61933394e-03, 1.97825691e-03, -2.66908661e-03, 0.00000000e+00, -1.34921132e+00, 0.00000000e+00, 0.00000000e+00, 5.33366384e+03, 1.76432941e+04, 0.00000000e+00, -4.77917756e+00, -1.53529681e+00, -3.08812108e+00, 1.08409191e+00, 0.00000000e+00, -0.6020349167, 3.4147844459, 15.0000000000, 95.5652999651, 0.6349627972
         420, -2.72927800e-03, 1.95336629e-03, 0.00000000e+00, 0.00000000e+00, 0.00000000e+00, -1.66977337e-03, 1.95336629e-03, -2.72927800e-03, 0.00000000e+00, -1.39721773e+00, 0.00000000e+00, 0.00000000e+00, 4.66582759e+03, 1.76479211e+04, 0.00000000e+00, -4.85598606e+00, -1.60334086e+00, -3.13521029e+00, 1.01831829e+00, 0.00000000e+00, -0.6457938309, 3.3524682091, 15.0000000000, 99.9000000000, 0.6520557443
         430, -2.78368433e-03, 1.93432675e-03, 0.00000000e+00, 0.00000000e+00, 0.00000000e+00, -1.71629072e-03, 1.93432675e-03, -2.78368433e-03, 0.00000000e+00, -1.43909726e+00, 0.00000000e+00, 0.00000000e+00, 4.04161501e+03, 1.76517730e+04, 0.00000000e+00, -4.93379558e+00, -1.67193601e+00, -3.19334072e+00, 9.51641860e-01, 0.00000000e+00, -0.6988792595, 3.3163985713, 14.0000000000, 99.9000000000, 0.6690771222
         440, -2.83215900e-03, 1.91943040e-03, 0.00000000e+00, 0.00000000e+00, 0.00000000e+00, -1.75855882e-03, 1.91943040e-03, -2.83215900e-03, 0.00000000e+00, -1.47552055e+00, 0.00000000e+00, 0.00000000e+00, 3.46525199e+03, 1.76545071e+04, 0.00000000e+00, -5.01316040e+00, -1.74133569e+00, -3.25730954e+00, 8.83936384e-01, 0.00000000e+00, -0.7570417973, 3.2796726307, 14.0000000000, 99.9000000000, 0.6858812292
         450, -2.87509298e-03, 1.90739624e-03, 0.00000000e+00, 0.00000000e+00, 0.00000000e+00, -1.79671323e-03, 1.90739624e-03, -2.87509298e-03, 0.00000000e+00, -1.50733912e+00, 0.00000000e+00, 0.00000000e+00, 2.93521532e+03, 1.76565071e+04, 0.00000000e+00, -5.09452079e+00, -1.81199650e+00, -3.31990577e+00, 8.14938690e-01, 0.00000000e+00, -0.8184291913, 3.2444760681, 14.0000000000, 99.9000000000, 0.7025412440
         460, -2.91291261e-03, 1.89744261e-03, 0.00000000e+00, 0.00000000e+00, 0.00000000e+00, -1.83094487e-03, 1.89744261e-03, -2.91291261e-03, 0.00000000e+00, -1.53517824e+00, 0.00000000e+00, 0.00000000e+00, 2.44917261e+03, 1.76580335e+04, 0.00000000e+00, -5.17882744e+00, -1.88419523e+00, -3.38704411e+00, 7.44196820e-01, 0.00000000e+00, -0.8816998117, 3.2098255443, 13.0000000000, 99.9000000000, 0.7193578323
         470, -2.94606551e-03, 1.88908855e-03, 0.00000000e+00, 0.00000000e+00, 0.00000000e+00, -1.86148963e-03, 1.88908855e-03, -2.94606551e-03, 0.00000000e+00, -1.55951690e+00, 0.00000000e+00, 0.00000000e+00, 2.00449194e+03, 1.76590678e+04, 0.00000000e+00, -5.26523575e+00, -1.95756393e+00, -3.45447746e+00, 6.72361125e-01, 0.00000000e+00, -0.9463031916, 3.1740686857, 13.0000000000, 99.9000000000, 0.7356087645
         480, -2.97497814e-03, 1.88202799e-03, 0.00000000e+00, 0.00000000e+00, 0.00000000e+00, -1.88855382e-03, 1.88202799e-03, -2.97497814e-03, 0.00000000e+00, -1.58073001e+00, 0.00000000e+00, 0.00000000e+00, 1.59855460e+03, 1.76599477e+04, 0.00000000e+00, -5.35327997e+00, -2.03161074e+00, -3.52201415e+00, 5.99790970e-01, 0.00000000e+00, -1.0094438615, 3.1394966030, 12.0000000000, 99.9000000000, 0.7510203083
         490, -3.00014243e-03, 1.87604897e-03, 0.00000000e+00, 0.00000000e+00, 0.00000000e+00, -1.91247376e-03, 1.87604897e-03, -3.00014243e-03, 0.00000000e+00, -1.59918130e+00, 0.00000000e+00, 0.00000000e+00, 1.22891530e+03, 1.76606758e+04, 0.00000000e+00, -5.44280403e+00, -2.10631609e+00, -3.59738408e+00, 5.26603031e-01, 0.00000000e+00, -1.0760394566, 3.1024702872, 12.0000000000, 99.9000000000, 0.7660809159
         500, -3.02194011e-03, 1.87098789e-03, 0.00000000e+00, 0.00000000e+00, 0.00000000e+00, -1.93346875e-03, 1.87098789e-03, -3.02194011e-03, 0.00000000e+00, -1.61515750e+00, 0.00000000e+00, 0.00000000e+00, 8.93046802e+02, 1.76613010e+04, 0.00000000e+00, -5.53118699e+00, -2.18068684e+00, -3.67005147e+00, 4.53953626e-01, 0.00000000e+00, -1.1382307654, 3.0654294603, 12.0000000000, 99.9000000000, 0.7810955127
         510, -3.04080118e-03, 1.86670514e-03, 0.00000000e+00, 0.00000000e+00, 0.00000000e+00, -1.95185067e-03, 1.86670514e-03, -3.04080118e-03, 0.00000000e+00, -1.62896705e+00, 0.00000000e+00, 0.00000000e+00, 5.88883063e+02, 1.76624384e+04, 0.00000000e+00, -5.61893914e+00, -2.25485969e+00, -3.74168594e+00, 3.81542876e-01, 0.00000000e+00, -1.2018029656, 3.0270583414, 12.0000000000, 99.9000000000, 0.7962216338
         520, -3.05712207e-03, 1.86307970e-03, 0.00000000e+00, 0.00000000e+00, 0.00000000e+00, -1.96794595e-03, 1.86307970e-03, -3.05712207e-03, 0.00000000e+00, -1.64089710e+00, 0.00000000e+00, 0.00000000e+00, 3.14157213e+02, 1.76631181e+04, 0.00000000e+00, -5.70563532e+00, -2.32879608e+00, -3.81097098e+00, 3.09436256e-01, 0.00000000e+00, -1.2704324728, 2.9885747359, 12.0000000000, 99.9000000000, 0.8111922820
         530, -3.07123278e-03, 1.86000881e-03, 0.00000000e+00, 0.00000000e+00, 0.00000000e+00, -1.98201387e-03, 1.86000881e-03, -3.07123278e-03, 0.00000000e+00, -1.65119260e+00, 0.00000000e+00, 0.00000000e+00, 6.66097336e+01, 1.76633827e+04, 0.00000000e+00, -5.78962358e+00, -2.40215832e+00, -3.88411567e+00, 2.38028280e-01, 0.00000000e+00, -1.3257455345, 2.9489201794, 12.0000000000, 99.9000000000, 0.8264094671
         540, -3.08343556e-03, 1.85740480e-03, 0.00000000e+00, 0.00000000e+00, 0.00000000e+00, -1.99430788e-03, 1.85740480e-03, -3.08343556e-03, 0.00000000e+00, -1.66007731e+00, 0.00000000e+00, 0.00000000e+00, -1.55890386e+02, 1.76634551e+04, 0.00000000e+00, -5.87051426e+00, -2.47530854e+00, -3.95216138e+00, 1.67003837e-01, 0.00000000e+00, -1.3876467788, 2.9080965842, 12.0000000000, 99.9000000000, 0.8418516715
         550, -3.09402668e-03, 1.85519336e-03, 0.00000000e+00, 0.00000000e+00, 0.00000000e+00, -2.00509097e-03, 1.85519336e-03, -3.09402668e-03, 0.00000000e+00, -1.66776507e+00, 0.00000000e+00, 0.00000000e+00, -3.55375412e+02, 1.76634654e+04, 0.00000000e+00, -5.94794749e+00, -2.54826892e+00, -4.01967815e+00, 9.62270957e-02, 0.00000000e+00, -1.4511892690, 2.8663035056, 12.0000000000, 99.9000000000, 0.8570773323
         560, -3.10322952e-03, 1.85331306e-03, 0.00000000e+00, 0.00000000e+00, 0.00000000e+00, -2.01456312e-03, 1.85331306e-03, -3.10322952e-03, 0.00000000e+00, -1.67442273e+00, 0.00000000e+00, 0.00000000e+00, -5.33976137e+02, 1.76634591e+04, 0.00000000e+00, -6.02181653e+00, -2.62116769e+00, -4.08735539e+00, 2.56230300e-02, 0.00000000e+00, -1.5157619699, 2.8223282438, 12.0000000000, 99.9000000000, 0.8746215065
         570, -3.11120380e-03, 1.85171472e-03, 0.00000000e+00, 0.00000000e+00, 0.00000000e+00, -2.02284551e-03, 1.85171472e-03, -3.11120380e-03, 0.00000000e+00, -1.68017448e+00, 0.00000000e+00, 0.00000000e+00, -6.93688713e+02, 1.76634552e+04, 0.00000000e+00, -6.09194095e+00, -2.69371838e+00, -4.15526217e+00, -4.45884048e-02, 0.00000000e+00, -1.5807082858, 2.7783557848, 12.0000000000, 99.9000000000, 0.8907464623
         580, -3.11811165e-03, 1.85035695e-03, 0.00000000e+00, 0.00000000e+00, 0.00000000e+00, -2.03008448e-03, 1.85035695e-03, -3.11811165e-03, 0.00000000e+00, -1.68514061e+00, 0.00000000e+00, 0.00000000e+00, -8.36233058e+02, 1.76634588e+04, 0.00000000e+00, -6.15826466e+00, -2.76589123e+00, -4.22325684e+00, -1.14415990e-01, 0.00000000e+00, -1.6457926494, 2.7333929864, 12.0000000000, 99.9000000000, 0.9071523110
         590, -3.12409555e-03, 1.84920299e-03, 0.00000000e+00, 0.00000000e+00, 0.00000000e+00, -2.03641018e-03, 1.84920299e-03, -3.12409555e-03, 0.00000000e+00, -1.68942813e+00, 0.00000000e+00, 0.00000000e+00, -9.63202853e+02, 1.76634649e+04, 0.00000000e+00, -6.22094745e+00, -2.83765166e+00, -4.29219376e+00, -1.83860355e-01, 0.00000000e+00, -1.7108676275, 2.6876715308, 12.0000000000, 99.9000000000, 0.9226939003
         600, -3.12928111e-03, 1.84822082e-03, 0.00000000e+00, 0.00000000e+00, 0.00000000e+00, -2.04193940e-03, 1.84822082e-03, -3.12928111e-03, 0.00000000e+00, -1.69313162e+00, 0.00000000e+00, 0.00000000e+00, -1.07609015e+03, 1.76634694e+04, 0.00000000e+00, -6.28029446e+00, -2.90907069e+00, -4.35948798e+00, -2.52952269e-01, 0.00000000e+00, -1.7757042911, 2.6408318460, 12.0000000000, 99.9000000000, 0.9382815957
         610, -3.13377427e-03, 1.84738342e-03, 0.00000000e+00, 0.00000000e+00, 0.00000000e+00, -2.04677037e-03, 1.84738342e-03, -3.13377427e-03, 0.00000000e+00, -1.69633127e+00, 0.00000000e+00, 0.00000000e+00, -1.17629371e+03, 1.76634715e+04, 0.00000000e+00, -6.33684851e+00, -2.98009055e+00, -4.42649515e+00, -3.21667797e-01, 0.00000000e+00, -1.8403357349, 2.5933632289, 12.0000000000, 99.9000000000, 0.9539152861
         620, -3.13766822e-03, 1.84666832e-03, 0.00000000e+00, 0.00000000e+00, 0.00000000e+00, -2.05099103e-03, 1.84666832e-03, -3.13766822e-03, 0.00000000e+00, -1.69909679e+00, 0.00000000e+00, 0.00000000e+00, -1.26509815e+03, 1.76634717e+04, 0.00000000e+00, -6.39115985e+00, -3.05074238e+00, -4.49322565e+00, -3.90051730e-01, 0.00000000e+00, -1.9046555648, 2.5451756367, 12.0000000000, 99.9000000000, 0.9751438260
         630, -3.14104375e-03, 1.84605684e-03, 0.00000000e+00, 0.00000000e+00, 0.00000000e+00, -2.05467891e-03, 1.84605684e-03, -3.14104375e-03, 0.00000000e+00, -1.70148810e+00, 0.00000000e+00, 0.00000000e+00, -1.34368326e+03, 1.76634704e+04, 0.00000000e+00, -6.44386642e+00, -3.12104564e+00, -4.55961151e+00, -4.58147985e-01, 0.00000000e+00, -1.9686862457, 2.4962218501, 12.0000000000, 99.9000000000, 0.9973543803
         640, -3.14397041e-03, 1.84553341e-03, 0.00000000e+00, 0.00000000e+00, 0.00000000e+00, -2.05790134e-03, 1.84553341e-03, -3.14397041e-03, 0.00000000e+00, -1.70355648e+00, 0.00000000e+00, 0.00000000e+00, -1.41312649e+03, 1.76634681e+04, 0.00000000e+00, -6.49543768e+00, -3.19098228e+00, -4.62578900e+00, -5.25942338e-01, 0.00000000e+00, -2.0324648548, 2.4465631070, 12.0000000000, 99.9000000000, 1.0202079336
         650, -3.14650814e-03, 1.84508499e-03, 0.00000000e+00, 0.00000000e+00, 0.00000000e+00, -2.06071688e-03, 1.84508499e-03, -3.14650814e-03, 0.00000000e+00, -1.70534591e+00, 0.00000000e+00, 0.00000000e+00, -1.47440741e+03, 1.76634652e+04, 0.00000000e+00, -6.54632445e+00, -3.26051766e+00, -4.69185660e+00, -5.93419131e-01, 0.00000000e+00, -2.0960628309, 2.3961838587, 12.0000000000, 99.9000000000, 1.0427768946
         660, -3.14870871e-03, 1.84470059e-03, 0.00000000e+00, 0.00000000e+00, 0.00000000e+00, -2.06317658e-03, 1.84470059e-03, -3.14870871e-03, 0.00000000e+00, -1.70689419e+00, 0.00000000e+00, 0.00000000e+00, -1.52841318e+03, 1.76634619e+04, 0.00000000e+00, -6.59690091e+00, -3.32964935e+00, -4.75743840e+00, -6.60585418e-01, 0.00000000e+00, -2.1594865857, 2.3452143359, 12.0000000000, 99.9000000000, 1.0654015223
         670, -3.15061728e-03, 1.84437091e-03, 0.00000000e+00, 0.00000000e+00, 0.00000000e+00, -2.06532554e-03, 1.84437091e-03, -3.15061728e-03, 0.00000000e+00, -1.70823410e+00, 0.00000000e+00, 0.00000000e+00, -1.57594447e+03, 1.76634582e+04, 0.00000000e+00, -6.64745639e+00, -3.39839459e+00, -4.82296680e+00, -7.27463434e-01, 0.00000000e+00, -2.2226433922, 2.2935394764, 12.0000000000, 99.9000000000, 1.0871919115
         680, -3.15227273e-03, 1.84408803e-03, 0.00000000e+00, 0.00000000e+00, 0.00000000e+00, -2.06720294e-03, 1.84408803e-03, -3.15227273e-03, 0.00000000e+00, -1.70939385e+00, 0.00000000e+00, 0.00000000e+00, -1.61772366e+03, 1.76634541e+04, 0.00000000e+00, -6.69821385e+00, -3.46676342e+00, -4.88826934e+00, -7.94071410e-01, 0.00000000e+00, -2.2855967750, 2.2412293986, 12.0000000000, 99.9000000000, 1.1084578633
         690, -3.15370872e-03, 1.84384521e-03, 0.00000000e+00, 0.00000000e+00, 0.00000000e+00, -2.06884296e-03, 1.84384521e-03, -3.15370872e-03, 0.00000000e+00, -1.71039776e+00, 0.00000000e+00, 0.00000000e+00, -1.65440042e+03, 1.76634498e+04, 0.00000000e+00, -6.74932335e+00, -3.53476039e+00, -4.95351500e+00, -8.60418826e-01, 0.00000000e+00, -2.3483281533, 2.1883299492, 12.0000000000, 99.9000000000, 1.1298469702
         700, -3.15495432e-03, 1.84363671e-03, 0.00000000e+00, 0.00000000e+00, 0.00000000e+00, -2.07027544e-03, 1.84363671e-03, -3.15495432e-03, 0.00000000e+00, -1.71126682e+00, 0.00000000e+00, 0.00000000e+00, -1.68655849e+03, 1.76634452e+04, 0.00000000e+00, -6.80094873e+00, -3.60240532e+00, -5.01831068e+00, -9.26532258e-01, 0.00000000e+00, -2.4110954420, 2.1348277675, 12.0000000000, 99.9000000000, 1.1508513133