TITLE = "SU2 Simulation"
VARIABLES = "Iteration","CL","CD","CSF","CMx","CMy","CMz","CFx","CFy","CFz","CL/CD","AoA","Custom_ObjFunc","HeatFlux_Total","HeatFlux_Maximum","Temperature_Total","Res_Flow[0]","Res_Flow[1]","Res_Flow[2]","Res_Flow[3]","Res_Flow[4]","Res_Turb[0]","Res_Turb[1]","Linear_Solver_Iterations","CFL_Number","Time(min)"
ZONE T= "Convergence history"
           0, -4.17610926e-01, 1.14682381e-01, 0.00000000e+00, 0.00000000e+00, 0.00000000e+00, -3.13214255e-01, 1.14682381e-01, -4.17610926e-01, 0.00000000e+00, -3.64145671e+00, 0.00000000e+00, 0.00000000e+00, -1.55541583e+07, 1.40108238e+07, 0.00000000e+00, -1.56622260e+01, -6.11260646e+00, -6.57313479e+00, 4.72224245e+00, 0.00000000e+00, -3.1763975707, 7.4559259313, 1.0000000000, 2.5000000000, 0.0011602362
          10, -3.82733343e-02, 2.89081161e-02, 0.00000000e+00, 0.00000000e+00, 0.00000000e+00, -2.87189396e-02, 2.89081161e-02, -3.82733343e-02, 0.00000000e+00, -1.32396501e+00, 0.00000000e+00, 0.00000000e+00, -3.16552166e+05, 3.02579218e+05, 0.00000000e+00, -1.50257308e+00, 1.39114362e+00, 9.97761444e-01, 4.25762577e+00, 0.00000000e+00, -3.7472633082, 7.7653713903, 3.0000000000, 4.3176767857, 0.0126779834
          20, -6.52817720e-03, 2.00108108e-02, 0.00000000e+00, 0.00000000e+00, 0.00000000e+00, -4.88981734e-03, 2.00108108e-02, -6.52817720e-03, 0.00000000e+00, -3.26232518e-01, 0.00000000e+00, 0.00000000e+00, -1.07279148e+05, 1.34742540e+05, 0.00000000e+00, -1.92067369e+00, 9.44669332e-01, 6.44882297e-01, 3.82958311e+00, 0.00000000e+00, -3.9115275322, 6.3880024562, 6.0000000000, 7.1525762321, 0.0262558818
          30, -4.29128648e-03, 1.56684376e-02, 0.00000000e+00, 0.00000000e+00, 0.00000000e+00, -3.20970629e-03, 1.56684376e-02, -4.29128648e-03, 0.00000000e+00, -2.73880944e-01, 0.00000000e+00, 0.00000000e+00, -6.41121281e+04, 7.30410597e+04, 0.00000000e+00, -2.06130568e+00, 7.83494832e-01, 5.00113692e-01, 3.67217649e+00, 0.00000000e+00, -4.0022482239, 5.6436213809, 6.0000000000, 8.6500006003, 0.0425754348
          40, -3.94580983e-03, 1.29539538e-02, 0.00000000e+00, 0.00000000e+00, 0.00000000e+00, -2.94057959e-03, 1.29539538e-02, -3.94580983e-03, 0.00000000e+00, -3.04602742e-01, 0.00000000e+00, 0.00000000e+00, -3.02538085e+04, 4.38658425e+04, 0.00000000e+00, -2.12598062e+00, 6.87933801e-01, 4.28082454e-01, 3.58142241e+00, 0.00000000e+00, -4.0498919688, 5.3826690153, 6.0000000000, 9.2628746764, 0.0576573849
          50, -3.63348505e-03, 1.09840244e-02, 0.00000000e+00, 0.00000000e+00, 0.00000000e+00, -2.58435625e-03, 1.09840244e-02, -3.63348505e-03, 0.00000000e+00, -3.30797248e-01, 0.00000000e+00, 0.00000000e+00, -1.16593132e+04, 3.13799467e+04, 0.00000000e+00, -2.30267403e+00, 5.01996834e-01, 2.39787094e-01, 3.38909437e+00, 0.00000000e+00, -4.0706013105, 5.2702733133, 6.0000000000, 11.1476260992, 0.0717269460
          60, -4.18697986e-03, 9.27189399e-03, 0.00000000e+00, 0.00000000e+00, 0.00000000e+00, -3.14944812e-03, 9.27189399e-03, -4.18697986e-03, 0.00000000e+00, -4.51577625e-01, 0.00000000e+00, 0.00000000e+00, 2.90936088e+03, 2.33162424e+04, 0.00000000e+00, -2.66239668e+00, 1.82197071e-01, -1.67139945e-01, 3.02580009e+00, 0.00000000e+00, -4.3488998548, 5.0960856993, 8.0000000000, 16.4695866995, 0.0864155968
          70, -4.34013766e-03, 7.45676730e-03, 0.00000000e+00, 0.00000000e+00, 0.00000000e+00, -3.12681147e-03, 7.45676730e-03, -4.34013766e-03, 0.00000000e+00, -5.82040110e-01, 0.00000000e+00, 0.00000000e+00, 9.46618671e+03, 1.79897910e+04, 0.00000000e+00, -3.14031964e+00, -1.12687062e-01, -8.61274402e-01, 2.58334343e+00, 0.00000000e+00, -4.9741584648, 5.1256349015, 11.0000000000, 28.7922439439, 0.1017860452
          80, -3.17820825e-03, 5.81975712e-03, 0.00000000e+00, 0.00000000e+00, 0.00000000e+00, -2.42071876e-03, 5.81975712e-03, -3.17820825e-03, 0.00000000e+00, -5.46106682e-01, 0.00000000e+00, 0.00000000e+00, 9.98565955e+03, 1.53012553e+04, 0.00000000e+00, -3.35328229e+00, -2.56252526e-01, -1.49416523e+00, 2.39591491e+00, 0.00000000e+00, -5.0331390690, 4.9256989416, 12.0000000000, 37.9107197753, 0.1188788493
          90, -2.39418651e-03, 4.66695373e-03, 0.00000000e+00, 0.00000000e+00, 0.00000000e+00, -1.79765920e-03, 4.66695373e-03, -2.39418651e-03, 0.00000000e+00, -5.13008410e-01, 0.00000000e+00, 0.00000000e+00, 1.22801373e+04, 1.48576490e+04, 0.00000000e+00, -3.49013691e+00, -3.86508887e-01, -1.68001440e+00, 2.25817530e+00, 0.00000000e+00, -4.9037132440, 4.6260070118, 13.0000000000, 44.3882487264, 0.1373092413
         100, -1.86947970e-03, 3.82731553e-03, 0.00000000e+00, 0.00000000e+00, 0.00000000e+00, -1.39319021e-03, 3.82731553e-03, -1.86947970e-03, 0.00000000e+00, -4.88457168e-01, 0.00000000e+00, 0.00000000e+00, 1.30945144e+04, 1.56873351e+04, 0.00000000e+00, -3.60384932e+00, -4.94402503e-01, -1.94211803e+00, 2.14638166e+00, 0.00000000e+00, -4.3874160689, 4.4925896497, 13.0000000000, 50.7081263774, 0.1550975561
         110, -1.51558783e-03, 3.19702046e-03, 0.00000000e+00, 0.00000000e+00, 0.00000000e+00, -1.11748091e-03, 3.19702046e-03, -1.51558783e-03, 0.00000000e+00, -4.74062599e-01, 0.00000000e+00, 0.00000000e+00, 1.31191422e+04, 1.67015217e+04, 0.00000000e+00, -3.70225164e+00, -5.90265762e-01, -2.14921603e+00, 2.04854845e+00, 0.00000000e+00, -3.5882613806, 4.3299279185, 13.0000000000, 56.9229688395, 0.1724467039
         120, -1.26356134e-03, 2.71165231e-03, 0.00000000e+00, 0.00000000e+00, 0.00000000e+00, -9.19351436e-04, 2.71165231e-03, -1.26356134e-03, 0.00000000e+00, -4.65974687e-01, 0.00000000e+00, 0.00000000e+00, 1.26718813e+04, 1.73075444e+04, 0.00000000e+00, -3.78929929e+00, -6.76051703e-01, -2.30825206e+00, 1.96163079e+00, 0.00000000e+00, -2.6501905013, 4.1960267388, 13.0000000000, 62.9614128802, 0.1901172320
         130, -1.07725243e-03, 2.32991041e-03, 0.00000000e+00, 0.00000000e+00, 0.00000000e+00, -7.71056942e-04, 2.32991041e-03, -1.07725243e-03, 0.00000000e+00, -4.62357877e-01, 0.00000000e+00, 0.00000000e+00, 1.19927912e+04, 1.75204750e+04, 0.00000000e+00, -3.86631000e+00, -7.53182786e-01, -2.44002316e+00, 1.88459838e+00, 0.00000000e+00, -1.5953366635, 4.0746427060, 13.0000000000, 68.8947735387, 0.2110230645
         140, -9.45576437e-04, 2.02537088e-03, 0.00000000e+00, 0.00000000e+00, 0.00000000e+00, -6.63726218e-04, 2.02537088e-03, -9.45576437e-04, 0.00000000e+00, -4.66865820e-01, 0.00000000e+00, 0.00000000e+00, 1.12469484e+04, 1.75868389e+04, 0.00000000e+00, -3.92874473e+00, -8.19209573e-01, -2.60412408e+00, 1.82117603e+00, 0.00000000e+00, -0.4604683749, 4.0154582268, 15.0000000000, 74.2446978015, 0.2374622703
         150, -9.69964418e-04, 1.79771125e-03, 0.00000000e+00, 0.00000000e+00, 0.00000000e+00, -6.73186506e-04, 1.79771125e-03, -9.69964418e-04, 0.00000000e+00, -5.39555180e-01, 0.00000000e+00, 0.00000000e+00, 1.08723921e+04, 1.76098874e+04, 0.00000000e+00, -3.86502970e+00, -7.73808254e-01, -2.18254810e+00, 1.88117505e+00, 0.00000000e+00, 0.4835453664, 4.1241001522, 15.0000000000, 63.0938646912, 0.2650294582
         160, -1.20585576e-03, 1.69490907e-03, 0.00000000e+00, 0.00000000e+00, 0.00000000e+00, -8.41629676e-04, 1.69490907e-03, -1.20585576e-03, 0.00000000e+00, -7.11457494e-01, 0.00000000e+00, 0.00000000e+00, 1.10297853e+04, 1.76208156e+04, 0.00000000e+00, -3.72539414e+00, -6.47952703e-01, -2.06288894e+00, 2.01685142e+00, 0.00000000e+00, 0.5851319648, 3.6934191518, 12.0000000000, 37.0977584892, 0.2895871798
         170, -1.40301387e-03, 1.66189849e-03, 0.00000000e+00, 0.00000000e+00, 0.00000000e+00, -9.80529422e-04, 1.66189849e-03, -1.40301387e-03, 0.00000000e+00, -8.44223566e-01, 0.00000000e+00, 0.00000000e+00, 1.05829194e+04, 1.76308659e+04, 0.00000000e+00, -3.67454933e+00, -5.98470034e-01, -2.06406847e+00, 2.06420599e+00, 0.00000000e+00, 0.5446466602, 3.6727843174, 10.0000000000, 30.7618070726, 0.3074789882
         180, -1.56842450e-03, 1.68926286e-03, 0.00000000e+00, 0.00000000e+00, 0.00000000e+00, -1.09507290e-03, 1.68926286e-03, -1.56842450e-03, 0.00000000e+00, -9.28466811e-01, 0.00000000e+00, 0.00000000e+00, 9.96730079e+03, 1.76317005e+04, 0.00000000e+00, -3.64397745e+00, -5.68182675e-01, -2.10025773e+00, 2.09277311e+00, 0.00000000e+00, 0.4929800557, 3.6556495420, 10.0000000000, 27.7353721282, 0.3229922930
         190, -1.69628128e-03, 1.76369822e-03, 0.00000000e+00, 0.00000000e+00, 0.00000000e+00, -1.18086037e-03, 1.76369822e-03, -1.69628128e-03, 0.00000000e+00, -9.61775240e-01, 0.00000000e+00, 0.00000000e+00, 9.47865613e+03, 1.76411976e+04, 0.00000000e+00, -3.62984581e+00, -5.53559314e-01, -2.15253458e+00, 2.10439215e+00, 0.00000000e+00, 0.4207022342, 3.6447171442, 9.0000000000, 26.2401217609, 0.3408170223
         200, -1.78653320e-03, 1.86412639e-03, 0.00000000e+00, 0.00000000e+00, 0.00000000e+00, -1.23727771e-03, 1.86412639e-03, -1.78653320e-03, 0.00000000e+00, -9.58375579e-01, 0.00000000e+00, 0.00000000e+00, 9.17933033e+03, 1.76972975e+04, 0.00000000e+00, -3.62244456e+00, -5.48543224e-01, -2.15741308e+00, 2.10982842e+00, 0.00000000e+00, 0.3353878431, 3.6413165639, 9.0000000000, 25.4628278308, 0.3564996918
         210, -1.84870154e-03, 1.97142234e-03, 0.00000000e+00, 0.00000000e+00, 0.00000000e+00, -1.27110814e-03, 1.97142234e-03, -1.84870154e-03, 0.00000000e+00, -9.37750119e-01, 0.00000000e+00, 0.00000000e+00, 9.06427110e+03, 1.77788530e+04, 0.00000000e+00, -3.62434667e+00, -5.52311811e-01, -2.21917170e+00, 2.10582537e+00, 0.00000000e+00, 0.2468519091, 3.6114781301, 9.0000000000, 25.4258032729, 0.3724945943
         220, -1.89081314e-03, 2.07270627e-03, 0.00000000e+00, 0.00000000e+00, 0.00000000e+00, -1.28813966e-03, 2.07270627e-03, -1.89081314e-03, 0.00000000e+00, -9.12243653e-01, 0.00000000e+00, 0.00000000e+00, 9.06432787e+03, 1.78523517e+04, 0.00000000e+00, -3.63183332e+00, -5.62021341e-01, -2.21425838e+00, 2.09708887e+00, 0.00000000e+00, 0.1541547732, 3.5761959281, 9.0000000000, 25.5255630842, 0.3876414895
         230, -1.91723986e-03, 2.16198000e-03, 0.00000000e+00, 0.00000000e+00, 0.00000000e+00, -1.29117815e-03, 2.16198000e-03, -1.91723986e-03, 0.00000000e+00, -8.86798145e-01, 0.00000000e+00, 0.00000000e+00, 9.10648361e+03, 1.79033575e+04, 0.00000000e+00, -3.64469529e+00, -5.76638452e-01, -2.25584956e+00, 2.08326992e+00, 0.00000000e+00, 0.0713501118, 3.5091362954, 9.0000000000, 25.9320111742, 0.4032666127
         240, -1.93290946e-03, 2.23693308e-03, 0.00000000e+00, 0.00000000e+00, 0.00000000e+00, -1.28360524e-03, 2.23693308e-03, -1.93290946e-03, 0.00000000e+00, -8.64089087e-01, 0.00000000e+00, 0.00000000e+00, 9.15353407e+03, 1.79324091e+04, 0.00000000e+00, -3.66449717e+00, -5.96680555e-01, -2.25293753e+00, 2.06284582e+00, 0.00000000e+00, 0.0192561003, 3.4348849687, 9.0000000000, 26.4825871586, 0.4182746927
         250, -1.94156524e-03, 2.29727387e-03, 0.00000000e+00, 0.00000000e+00, 0.00000000e+00, -1.26801093e-03, 2.29727387e-03, -1.94156524e-03, 0.00000000e+00, -8.45160549e-01, 0.00000000e+00, 0.00000000e+00, 9.18890870e+03, 1.79408806e+04, 0.00000000e+00, -3.68593034e+00, -6.18891714e-01, -2.27727992e+00, 2.04114887e+00, 0.00000000e+00, 0.0070010843, 3.3417338558, 9.0000000000, 27.1339377138, 0.4335461179
         260, -1.94627755e-03, 2.34353551e-03, 0.00000000e+00, 0.00000000e+00, 0.00000000e+00, -1.24650949e-03, 2.34353551e-03, -1.94627755e-03, 0.00000000e+00, -8.30487758e-01, 0.00000000e+00, 0.00000000e+00, 9.21083138e+03, 1.79271884e+04, 0.00000000e+00, -3.71170366e+00, -6.44632617e-01, -2.30887010e+00, 2.01504386e+00, 0.00000000e+00, 0.0208984431, 3.2442138697, 9.0000000000, 27.9582783386, 0.4491330107
         270, -1.94989777e-03, 2.37647268e-03, 0.00000000e+00, 0.00000000e+00, 0.00000000e+00, -1.22131607e-03, 2.37647268e-03, -1.94989777e-03, 0.00000000e+00, -8.20500815e-01, 0.00000000e+00, 0.00000000e+00, 9.22584254e+03, 1.78942061e+04, 0.00000000e+00, -3.73978521e+00, -6.72547845e-01, -2.32270139e+00, 1.98714953e+00, 0.00000000e+00, 0.0385847265, 3.1408721338, 9.0000000000, 28.8462639557, 0.4640317639
         280, -1.95524564e-03, 2.39689589e-03, 0.00000000e+00, 0.00000000e+00, 0.00000000e+00, -1.19483181e-03, 2.39689589e-03, -1.95524564e-03, 0.00000000e+00, -8.15740744e-01, 0.00000000e+00, 0.00000000e+00, 9.24270508e+03, 1.78492462e+04, 0.00000000e+00, -3.77100106e+00, -7.02883713e-01, -2.36813442e+00, 1.95667127e+00, 0.00000000e+00, 0.0435015228, 3.0262934079, 9.0000000000, 29.9135232030, 0.4791753411
         290, -1.96545998e-03, 2.40553516e-03, 0.00000000e+00, 0.00000000e+00, 0.00000000e+00, -1.17028692e-03, 2.40553516e-03, -1.96545998e-03, 0.00000000e+00, -8.17057266e-01, 0.00000000e+00, 0.00000000e+00, 9.26910340e+03, 1.78008898e+04, 0.00000000e+00, -3.80879040e+00, -7.38021148e-01, -2.39699684e+00, 1.92037467e+00, 0.00000000e+00, 0.0321396367, 2.9526614006, 9.0000000000, 31.1989249677, 0.4937595010
         300, -1.98376798e-03, 2.40304841e-03, 0.00000000e+00, 0.00000000e+00, 0.00000000e+00, -1.15169966e-03, 2.40304841e-03, -1.98376798e-03, 0.00000000e+00, -8.25521439e-01, 0.00000000e+00, 0.00000000e+00, 9.30425055e+03, 1.77561321e+04, 0.00000000e+00, -3.85336745e+00, -7.78804195e-01, -2.43721509e+00, 1.87845599e+00, 0.00000000e+00, 0.0052615903, 2.9571386379, 9.0000000000, 32.8058985553, 0.5087013046
         310, -2.01364327e-03, 2.39014808e-03, 0.00000000e+00, 0.00000000e+00, 0.00000000e+00, -1.14439326e-03, 2.39014808e-03, -2.01364327e-03, 0.00000000e+00, -8.42476366e-01, 0.00000000e+00, 0.00000000e+00, 9.33810308e+03, 1.77185756e+04, 0.00000000e+00, -3.91201720e+00, -8.30198064e-01, -2.49201882e+00, 1.82460520e+00, 0.00000000e+00, -0.0355772759, 3.0408595785, 10.0000000000, 35.0549063536, 0.5242665807
         320, -2.05878709e-03, 2.36758678e-03, 0.00000000e+00, 0.00000000e+00, 0.00000000e+00, -1.15547378e-03, 2.36758678e-03, -2.05878709e-03, 0.00000000e+00, -8.69571964e-01, 0.00000000e+00, 0.00000000e+00, 9.35493075e+03, 1.76882693e+04, 0.00000000e+00, -3.99034359e+00, -8.95848294e-01, -2.54799425e+00, 1.75489185e+00, 0.00000000e+00, -0.0901752375, 3.1385905096, 10.0000000000, 38.2385240421, 0.5405779600
         330, -2.12124584e-03, 2.33590459e-03, 0.00000000e+00, 0.00000000e+00, 0.00000000e+00, -1.19122834e-03, 2.33590459e-03, -2.12124584e-03, 0.00000000e+00, -9.08104660e-01, 0.00000000e+00, 0.00000000e+00, 9.32912104e+03, 1.76651475e+04, 0.00000000e+00, -4.09104921e+00, -9.76133959e-01, -2.61355128e+00, 1.66832673e+00, 0.00000000e+00, -0.1590444358, 3.1996683830, 11.0000000000, 42.8572308751, 0.5564041893
         340, -2.19518879e-03, 2.29573266e-03, 0.00000000e+00, 0.00000000e+00, 0.00000000e+00, -1.24629803e-03, 2.29573266e-03, -2.19518879e-03, 0.00000000e+00, -9.56204016e-01, 0.00000000e+00, 0.00000000e+00, 9.21677510e+03, 1.76486626e+04, 0.00000000e+00, -4.19877454e+00, -1.05866956e+00, -2.69830237e+00, 1.57778438e+00, 0.00000000e+00, -0.2416481524, 3.1890333886, 11.0000000000, 48.5297302751, 0.5726030111
         350, -2.26924185e-03, 2.24887860e-03, 0.00000000e+00, 0.00000000e+00, 0.00000000e+00, -1.30474573e-03, 2.24887860e-03, -2.26924185e-03, 0.00000000e+00, -1.00905484e+00, 0.00000000e+00, 0.00000000e+00, 8.99417687e+03, 1.76373595e+04, 0.00000000e+00, -4.29696632e+00, -1.13356700e+00, -2.77342852e+00, 1.49552997e+00, 0.00000000e+00, -0.3354244807, 3.2312196252, 12.0000000000, 54.4049712324, 0.5950660308
         360, -2.33889209e-03, 2.19823592e-03, 0.00000000e+00, 0.00000000e+00, 0.00000000e+00, -1.35924409e-03, 2.19823592e-03, -2.33889209e-03, 0.00000000e+00, -1.06398593e+00, 0.00000000e+00, 0.00000000e+00, 8.67659912e+03, 1.76303002e+04, 0.00000000e+00, -4.38684625e+00, -1.20298456e+00, -2.83558776e+00, 1.42012100e+00, 0.00000000e+00, -0.4263443947, 3.2904594776, 12.0000000000, 60.3788201663, 0.6190925399
         370, -2.40493541e-03, 2.14692563e-03, 0.00000000e+00, 0.00000000e+00, 0.00000000e+00, -1.41021670e-03, 2.14692563e-03, -2.40493541e-03, 0.00000000e+00, -1.12017639e+00, 0.00000000e+00, 0.00000000e+00, 8.27870751e+03, 1.76262455e+04, 0.00000000e+00, -4.47132333e+00, -1.26959601e+00, -2.89368505e+00, 1.34937301e+00, 0.00000000e+00, -0.4941650381, 3.3386821465, 13.0000000000, 66.5847810670, 0.6429012855
         380, -2.46916002e-03, 2.09787434e-03, 0.00000000e+00, 0.00000000e+00, 0.00000000e+00, -1.45982702e-03, 2.09787434e-03, -2.46916002e-03, 0.00000000e+00, -1.17698185e+00, 0.00000000e+00, 0.00000000e+00, 7.80709773e+03, 1.76250210e+04, 0.00000000e+00, -4.55203954e+00, -1.33496037e+00, -2.94525303e+00, 1.28199764e+00, 0.00000000e+00, -0.5295006826, 3.3730078064, 14.0000000000, 73.1016331699, 0.6637696743
         390, -2.53277065e-03, 2.05347287e-03, 0.00000000e+00, 0.00000000e+00, 0.00000000e+00, -1.50972379e-03, 2.05347287e-03, -2.53277065e-03, 0.00000000e+00, -1.23340838e+00, 0.00000000e+00, 0.00000000e+00, 7.26706169e+03, 1.76262822e+04, 0.00000000e+00, -4.62989188e+00, -1.39979609e+00, -2.99177428e+00, 1.21711341e+00, 0.00000000e+00, -0.5475766709, 3.3935478345, 15.0000000000, 79.9779367950, 0.6836124380
         400, -2.59600001e-03, 2.01519814e-03, 0.00000000e+00, 0.00000000e+00, 0.00000000e+00, -1.56035454e-03, 2.01519814e-03, -2.59600001e-03, 0.00000000e+00, -1.28821080e+00, 0.00000000e+00, 0.00000000e+00, 6.66776908e+03, 1.76298785e+04, 0.00000000e+00, -4.70589406e+00, -1.46465464e+00, -3.03731113e+00, 1.15361633e+00, 0.00000000e+00, -0.5669542819, 3.4049836381, 15.0000000000, 87.2996260076, 0.7006796042
         410, -2.65857748e-03, 1.98340775e-03, 0.00000000e+00, 0.00000000e+00, 0.00000000e+00, -1.61155078e-03, 1.98340775e-03, -2.65857748e-03, 0.00000000e+00, -1.34040894e+00, 0.00000000e+00, 0.00000000e+00, 6.02313548e+03, 1.76347654e+04, 0.00000000e+00, -4.78159796e+00, -1.53056409e+00, -3.07823139e+00, 1.08994079e+00, 0.00000000e+00, -0.5963052147, 3.4110083236, 15.0000000000, 95.2386273648, 0.7179291884
         420, -2.71939971e-03, 1.95776063e-03, 0.00000000e+00, 0.00000000e+00, 0.00000000e+00, -1.66234859e-03, 1.95776063e-03, -2.71939971e-03, 0.00000000e+00, -1.38903586e+00, 0.00000000e+00, 0.00000000e+00, 5.35693989e+03, 1.76398881e+04, 0.00000000e+00, -4.85933405e+00, -1.59890094e+00, -3.12506902e+00, 1.02407208e+00, 0.00000000e+00, -0.6390588814, 3.3514121948, 15.0000000000, 99.9000000000, 0.7351223071
         430, -2.77451707e-03, 1.93818017e-03, 0.00000000e+00, 0.00000000e+00, 0.00000000e+00, -1.70931503e-03, 1.93818017e-03, -2.77451707e-03, 0.00000000e+00, -1.43150628e+00, 0.00000000e+00, 0.00000000e+00, 4.72815861e+03, 1.76443100e+04, 0.00000000e+00, -4.93809987e+00, -1.66773267e+00, -3.18303822e+00, 9.57335434e-01, 0.00000000e+00, -0.6917080994, 3.3190258811, 14.0000000000, 99.9000000000, 0.7518280705
         440, -2.82369081e-03, 1.92292817e-03, 0.00000000e+00, 0.00000000e+00, 0.00000000e+00, -1.75205210e-03, 1.92292817e-03, -2.82369081e-03, 0.00000000e+00, -1.46843281e+00, 0.00000000e+00, 0.00000000e+00, 4.14323910e+03, 1.76472765e+04, 0.00000000e+00, -5.01843478e+00, -1.73731286e+00, -3.24723641e+00, 8.89615141e-01, 0.00000000e+00, -0.7495509826, 3.2855475598, 14.0000000000, 99.9000000000, 0.7682991942
         450, -2.86729081e-03, 1.91064666e-03, 0.00000000e+00, 0.00000000e+00, 0.00000000e+00, -1.79067927e-03, 1.91064666e-03, -2.86729081e-03, 0.00000000e+00, -1.50069129e+00, 0.00000000e+00, 0.00000000e+00, 3.60215250e+03, 1.76491898e+04, 0.00000000e+00, -5.10069366e+00, -1.80809583e+00, -3.30889798e+00, 8.20682688e-01, 0.00000000e+00, -0.8108217679, 3.2525278616, 14.0000000000, 99.9000000000, 0.7885338187
         460, -2.90572790e-03, 1.90050699e-03, 0.00000000e+00, 0.00000000e+00, 0.00000000e+00, -1.82536168e-03, 1.90050699e-03, -2.90572790e-03, 0.00000000e+00, -1.52892250e+00, 0.00000000e+00, 0.00000000e+00, 3.10385490e+03, 1.76505938e+04, 0.00000000e+00, -5.18607151e+00, -1.88042172e+00, -3.37587604e+00, 7.49955168e-01, 0.00000000e+00, -0.8740725816, 3.2198256206, 13.0000000000, 99.9000000000, 0.8060543497
         470, -2.93946283e-03, 1.89200301e-03, 0.00000000e+00, 0.00000000e+00, 0.00000000e+00, -1.85635482e-03, 1.89200301e-03, -2.93946283e-03, 0.00000000e+00, -1.55362482e+00, 0.00000000e+00, 0.00000000e+00, 2.64663059e+03, 1.76516387e+04, 0.00000000e+00, -5.27355873e+00, -1.95397605e+00, -3.44223577e+00, 6.78109565e-01, 0.00000000e+00, -0.9385337131, 3.1848200751, 12.0000000000, 99.9000000000, 0.8234965285
         480, -2.96890281e-03, 1.88481607e-03, 0.00000000e+00, 0.00000000e+00, 0.00000000e+00, -1.88383481e-03, 1.88481607e-03, -2.96890281e-03, 0.00000000e+00, -1.57516846e+00, 0.00000000e+00, 0.00000000e+00, 2.22834851e+03, 1.76522720e+04, 0.00000000e+00, -5.36282103e+00, -2.02821877e+00, -3.51041455e+00, 6.05470520e-01, 0.00000000e+00, -1.0016323287, 3.1515459089, 12.0000000000, 99.9000000000, 0.8410447081
         490, -2.99454635e-03, 1.87872818e-03, 0.00000000e+00, 0.00000000e+00, 0.00000000e+00, -1.90814789e-03, 1.87872818e-03, -2.99454635e-03, 0.00000000e+00, -1.59392209e+00, 0.00000000e+00, 0.00000000e+00, 1.84690949e+03, 1.76529905e+04, 0.00000000e+00, -5.45355122e+00, -2.10316662e+00, -3.58316958e+00, 5.32179196e-01, 0.00000000e+00, -1.0657441738, 3.1147890954, 12.0000000000, 99.9000000000, 0.8565903703
         500, -3.01676989e-03, 1.87357269e-03, 0.00000000e+00, 0.00000000e+00, 0.00000000e+00, -1.92949912e-03, 1.87357269e-03, -3.01676989e-03, 0.00000000e+00, -1.61016965e+00, 0.00000000e+00, 0.00000000e+00, 1.49989544e+03, 1.76535889e+04, 0.00000000e+00, -5.54281086e+00, -2.17777618e+00, -3.65659824e+00, 4.59447916e-01, 0.00000000e+00, -1.1335730300, 3.0783428794, 12.0000000000, 99.9000000000, 0.8744295160
         510, -3.03601206e-03, 1.86920744e-03, 0.00000000e+00, 0.00000000e+00, 0.00000000e+00, -1.94820776e-03, 1.86920744e-03, -3.03601206e-03, 0.00000000e+00, -1.62422425e+00, 0.00000000e+00, 0.00000000e+00, 1.18529649e+03, 1.76543546e+04, 0.00000000e+00, -5.63096952e+00, -2.25217575e+00, -3.72685942e+00, 3.86993461e-01, 0.00000000e+00, -1.1969593386, 3.0422812188, 12.0000000000, 99.9000000000, 0.8914264679
         520, -3.05267313e-03, 1.86551036e-03, 0.00000000e+00, 0.00000000e+00, 0.00000000e+00, -1.96459929e-03, 1.86551036e-03, -3.05267313e-03, 0.00000000e+00, -1.63637425e+00, 0.00000000e+00, 0.00000000e+00, 9.00856541e+02, 1.76550735e+04, 0.00000000e+00, -5.71710574e+00, -2.32626266e+00, -3.80056196e+00, 3.14940998e-01, 0.00000000e+00, -1.2596199570, 3.0047903944, 12.0000000000, 99.9000000000, 0.9080133359
         530, -3.06707322e-03, 1.86237768e-03, 0.00000000e+00, 0.00000000e+00, 0.00000000e+00, -1.97892412e-03, 1.86237768e-03, -3.06707322e-03, 0.00000000e+00, -1.64685888e+00, 0.00000000e+00, 0.00000000e+00, 6.44284763e+02, 1.76553993e+04, 0.00000000e+00, -5.80135048e+00, -2.39978334e+00, -3.87195528e+00, 2.43398850e-01, 0.00000000e+00, -1.3167090333, 2.9637407141, 12.0000000000, 99.9000000000, 0.9247160673
         540, -3.07954140e-03, 1.85972042e-03, 0.00000000e+00, 0.00000000e+00, 0.00000000e+00, -1.99145689e-03, 1.85972042e-03, -3.07954140e-03, 0.00000000e+00, -1.65591632e+00, 0.00000000e+00, 0.00000000e+00, 4.13512490e+02, 1.76555043e+04, 0.00000000e+00, -5.88083843e+00, -2.47310475e+00, -3.93937410e+00, 1.72354329e-01, 0.00000000e+00, -1.3790352028, 2.9233774959, 12.0000000000, 99.9000000000, 0.9414438566
         550, -3.09036251e-03, 1.85746230e-03, 0.00000000e+00, 0.00000000e+00, 0.00000000e+00, -2.00244370e-03, 1.85746230e-03, -3.09036251e-03, 0.00000000e+00, -1.66375517e+00, 0.00000000e+00, 0.00000000e+00, 2.06421704e+02, 1.76555239e+04, 0.00000000e+00, -5.95630379e+00, -2.54629645e+00, -4.00672879e+00, 1.01525269e-01, 0.00000000e+00, -1.4428344263, 2.8814438677, 12.0000000000, 99.9000000000, 0.9575271169
         560, -3.09976572e-03, 1.85554189e-03, 0.00000000e+00, 0.00000000e+00, 0.00000000e+00, -2.01209405e-03, 1.85554189e-03, -3.09976572e-03, 0.00000000e+00, -1.67054473e+00, 0.00000000e+00, 0.00000000e+00, 2.09172809e+01, 1.76555237e+04, 0.00000000e+00, -6.02764483e+00, -2.61917175e+00, -4.07460931e+00, 3.10358358e-02, 0.00000000e+00, -1.5072128143, 2.8386001676, 12.0000000000, 99.9000000000, 0.9739596725
         570, -3.10793294e-03, 1.85390967e-03, 0.00000000e+00, 0.00000000e+00, 0.00000000e+00, -2.02056420e-03, 1.85390967e-03, -3.10793294e-03, 0.00000000e+00, -1.67642092e+00, 0.00000000e+00, 0.00000000e+00, -1.45027144e+02, 1.76555226e+04, 0.00000000e+00, -6.09471953e+00, -2.69185754e+00, -4.14245333e+00, -3.91741477e-02, 0.00000000e+00, -1.5721170773, 2.7943095162, 12.0000000000, 99.9000000000, 0.9901517550
         580, -3.11500772e-03, 1.85252236e-03, 0.00000000e+00, 0.00000000e+00, 0.00000000e+00, -2.02796468e-03, 1.85252236e-03, -3.11500772e-03, 0.00000000e+00, -1.68149535e+00, 0.00000000e+00, 0.00000000e+00, -2.93220554e+02, 1.76555246e+04, 0.00000000e+00, -6.15760489e+00, -2.76409134e+00, -4.21017354e+00, -1.08918269e-01, 0.00000000e+00, -1.6370899977, 2.7497177314, 12.0000000000, 99.9000000000, 1.0061254660
         590, -3.12113747e-03, 1.85134258e-03, 0.00000000e+00, 0.00000000e+00, 0.00000000e+00, -2.03443169e-03, 1.85134258e-03, -3.12113747e-03, 0.00000000e+00, -1.68587786e+00, 0.00000000e+00, 0.00000000e+00, -4.25283789e+02, 1.76555286e+04, 0.00000000e+00, -6.21675414e+00, -2.83590399e+00, -4.27862288e+00, -1.78271501e-01, 0.00000000e+00, -1.7019576122, 2.7040626651, 12.0000000000, 99.9000000000, 1.0236674746
         600, -3.12645061e-03, 1.85033793e-03, 0.00000000e+00, 0.00000000e+00, 0.00000000e+00, -2.04008505e-03, 1.85033793e-03, -3.12645061e-03, 0.00000000e+00, -1.68966466e+00, 0.00000000e+00, 0.00000000e+00, -5.42748267e+02, 1.76555348e+04, 0.00000000e+00, -6.27264949e+00, -2.90732286e+00, -4.34609620e+00, -2.47251371e-01, 0.00000000e+00, -1.7666124235, 2.6577078840, 12.0000000000, 99.9000000000, 1.0477210681
         610, -3.13105698e-03, 1.84948095e-03, 0.00000000e+00, 0.00000000e+00, 0.00000000e+00, -2.04502779e-03, 1.84948095e-03, -3.13105698e-03, 0.00000000e+00, -1.69293822e+00, 0.00000000e+00, 0.00000000e+00, -6.47051507e+02, 1.76555409e+04, 0.00000000e+00, -6.32604324e+00, -2.97831197e+00, -4.41305354e+00, -3.15825681e-01, 0.00000000e+00, -1.8311038063, 2.6103732366, 12.0000000000, 99.9000000000, 1.0715817531
         620, -3.13505071e-03, 1.84874875e-03, 0.00000000e+00, 0.00000000e+00, 0.00000000e+00, -2.04934789e-03, 1.84874875e-03, -3.13505071e-03, 0.00000000e+00, -1.69576894e+00, 0.00000000e+00, 0.00000000e+00, -7.39519698e+02, 1.76555439e+04, 0.00000000e+00, -6.37752615e+00, -3.04889153e+00, -4.47952482e+00, -3.84037382e-01, 0.00000000e+00, -1.8952802341, 2.5623706105, 12.0000000000, 99.9000000000, 1.0948284626
         630, -3.13851442e-03, 1.84812231e-03, 0.00000000e+00, 0.00000000e+00, 0.00000000e+00, -2.05312451e-03, 1.84812231e-03, -3.13851442e-03, 0.00000000e+00, -1.69821792e+00, 0.00000000e+00, 0.00000000e+00, -8.21369879e+02, 1.76555441e+04, 0.00000000e+00, -6.42779678e+00, -3.11908634e+00, -4.54562398e+00, -4.51936935e-01, 0.00000000e+00, -1.9591334157, 2.5135457845, 12.0000000000, 99.9000000000, 1.1123019417
         640, -3.14151898e-03, 1.84758576e-03, 0.00000000e+00, 0.00000000e+00, 0.00000000e+00, -2.05642609e-03, 1.84758576e-03, -3.14151898e-03, 0.00000000e+00, -1.70033730e+00, 0.00000000e+00, 0.00000000e+00, -8.93715474e+02, 1.76555424e+04, 0.00000000e+00, -6.47732058e+00, -3.18888470e+00, -4.61162278e+00, -5.19514807e-01, 0.00000000e+00, -2.0227076389, 2.4640260610, 12.0000000000, 99.9000000000, 1.1282463988
         650, -3.14412566e-03, 1.84712579e-03, 0.00000000e+00, 0.00000000e+00, 0.00000000e+00, -2.05931239e-03, 1.84712579e-03, -3.14412566e-03, 0.00000000e+00, -1.70217192e+00, 0.00000000e+00, 0.00000000e+00, -9.57569827e+02, 1.76555396e+04, 0.00000000e+00, -6.52653506e+00, -3.25827700e+00, -4.67746386e+00, -5.86780420e-01, 0.00000000e+00, -2.0860407312, 2.4137775052, 12.0000000000, 99.9000000000, 1.1439375401
         660, -3.14638723e-03, 1.84673121e-03, 0.00000000e+00, 0.00000000e+00, 0.00000000e+00, -2.06183529e-03, 1.84673121e-03, -3.14638723e-03, 0.00000000e+00, -1.70376025e+00, 0.00000000e+00, 0.00000000e+00, -1.01385256e+03, 1.76555361e+04, 0.00000000e+00, -6.57574063e+00, -3.32721297e+00, -4.74303918e+00, -6.53689120e-01, 0.00000000e+00, -2.1491771527, 2.3629062635, 12.0000000000, 99.9000000000, 1.1597454747
         670, -3.14834985e-03, 1.84639255e-03, 0.00000000e+00, 0.00000000e+00, 0.00000000e+00, -2.06404089e-03, 1.84639255e-03, -3.14834985e-03, 0.00000000e+00, -1.70513570e+00, 0.00000000e+00, 0.00000000e+00, -1.06339422e+03, 1.76555322e+04, 0.00000000e+00, -6.62522141e+00, -3.39576654e+00, -4.80841056e+00, -7.20328995e-01, 0.00000000e+00, -2.2120326745, 2.3112718739, 12.0000000000, 99.9000000000, 1.1753135999
         680, -3.15005307e-03, 1.84610176e-03, 0.00000000e+00, 0.00000000e+00, 0.00000000e+00, -2.06596886e-03, 1.84610176e-03, -3.15005307e-03, 0.00000000e+00, -1.70632689e+00, 0.00000000e+00, 0.00000000e+00, -1.10694562e+03, 1.76555280e+04, 0.00000000e+00, -6.67515422e+00, -3.46391016e+00, -4.87356305e+00, -7.86678141e-01, 0.00000000e+00, -2.2747102005, 2.2590554508, 12.0000000000, 99.9000000000, 1.1912535747
         690, -3.15153121e-03, 1.84585198e-03, 0.00000000e+00, 0.00000000e+00, 0.00000000e+00, -2.06765393e-03, 1.84585198e-03, -3.15153121e-03, 0.00000000e+00, -1.70735857e+00, 0.00000000e+00, 0.00000000e+00, -1.14518188e+03, 1.76555235e+04, 0.00000000e+00, -6.72563830e+00, -3.53166458e+00, -4.93830964e+00, -8.52755819e-01, 0.00000000e+00, -2.3373378459, 2.2062119892, 12.0000000000, 99.9000000000, 1.2077685396
         700, -3.15281398e-03, 1.84563736e-03, 0.00000000e+00, 0.00000000e+00, 0.00000000e+00, -2.06912646e-03, 1.84563736e-03, -3.15281398e-03, 0.00000000e+00, -1.70825215e+00, 0.00000000e+00, 0.00000000e+00, -1.17870969e+03, 1.76555188e+04, 0.00000000e+00, -6.77680649e+00, -3.59904385e+00, -5.00319340e+00, -9.18597991e-01, 0.00000000e+00, -2.3997406454, 2.1526901733, 12.0000000000, 99.9000000000, 1.2307592273