TITLE = "SU2 Simulation"
VARIABLES = "Iteration","CL","CD","CSF","CMx","CMy","CMz","CFx","CFy","CFz","CL/CD","AoA","Custom_ObjFunc","HeatFlux_Total","HeatFlux_Maximum","Temperature_Total","Res_Flow[0]","Res_Flow[1]","Res_Flow[2]","Res_Flow[3]","Res_Flow[4]"," Res_Turb[0]"," Res_Turb[1]"," Res_Turb[2]"," Res_Turb[3]","Linear_Solver_Iterations","CFL_Number","Time(min)"
ZONE T= "Convergence history"
           0, -4.00000039e-01, 2.01249574e-01, 0.00000000e+00, 0.00000000e+00, 0.00000000e+00, -3.00000136e-01, 2.01249574e-01, -4.00000039e-01, 0.00000000e+00, -1.98758204e+00, 0.00000000e+00, 0.00000000e+00, -8.74672963e+04, 7.87986306e+04, 0.00000000e+00, -2.26369284e+00, 6.52141827e-02, 1.21914533e-01, 3.20528024e+00, 0.00000000e+00, 2.6670671990, 6.8511105219, 1.9409554176, 8.2660433588, 8.0000000000, 10.0000000000, 0.0019072215
          10, -2.55437359e-02, 8.40250509e-02, 0.00000000e+00, 0.00000000e+00, 0.00000000e+00, -4.31927366e-02, 8.40250509e-02, -2.55437359e-02, 0.00000000e+00, -3.04001434e-01, 0.00000000e+00, 0.00000000e+00, -5.53873436e+03, 4.99254647e+03, 0.00000000e+00, -3.11630341e+00, -4.71124444e-01, -7.30813878e-01, 2.36579656e+00, 0.00000000e+00, 0.4858854679, 6.9632819952, 0.1109475043, 6.2520077870, 10.0000000000, 25.1903232350, 0.0196685553
          20, -3.44193940e-01, 5.01513837e-02, 0.00000000e+00, 0.00000000e+00, 0.00000000e+00, -2.48849302e-01, 5.01513837e-02, -3.44193940e-01, 0.00000000e+00, -6.86309956e+00, 0.00000000e+00, 0.00000000e+00, -2.52474924e+03, 2.27649943e+03, 0.00000000e+00, -3.45968279e+00, -7.84453632e-01, -7.52560329e-01, 2.02235178e+00, 0.00000000e+00, -0.2627473486, 5.8845564079, -0.6091591944, 5.3914692065, 10.0000000000, 38.7123593603, 0.0383091013
          30, -1.61822842e-01, 3.70892375e-02, 0.00000000e+00, 0.00000000e+00, 0.00000000e+00, -7.86715294e-02, 3.70892375e-02, -1.61822842e-01, 0.00000000e+00, -4.36306739e+00, 0.00000000e+00, 0.00000000e+00, -1.41342752e+03, 1.28585216e+03, 0.00000000e+00, -3.54272736e+00, -8.70529364e-01, -1.19959807e+00, 1.94422817e+00, 0.00000000e+00, -0.7324569282, 5.1971963442, -0.9509726741, 4.6275970043, 10.0000000000, 40.0377216601, 0.0569121480
          40, -1.33850743e-01, 2.98980769e-02, 0.00000000e+00, 0.00000000e+00, 0.00000000e+00, -1.41688381e-01, 2.98980769e-02, -1.33850743e-01, 0.00000000e+00, -4.47690143e+00, 0.00000000e+00, 0.00000000e+00, -9.25296320e+02, 8.31325057e+02, 0.00000000e+00, -3.67719880e+00, -1.05944718e+00, -1.06767370e+00, 1.78026825e+00, 0.00000000e+00, -1.0172799295, 4.7341287425, -1.2748539800, 4.2818278529, 10.0000000000, 46.6636657632, 0.0755410035
          50, -2.20652795e-01, 2.48029078e-02, 0.00000000e+00, 0.00000000e+00, 0.00000000e+00, -1.46065942e-01, 2.48029078e-02, -2.20652795e-01, 0.00000000e+00, -8.89624704e+00, 0.00000000e+00, 0.00000000e+00, -6.43593383e+02, 5.85075519e+02, 0.00000000e+00, -3.90300606e+00, -1.23386375e+00, -1.26513390e+00, 1.57517829e+00, 0.00000000e+00, -1.2458110982, 4.3428267729, -1.5317744557, 3.7948105470, 10.0000000000, 60.9615295050, 0.0937103868
          60, -1.68744613e-01, 2.08127356e-02, 0.00000000e+00, 0.00000000e+00, 0.00000000e+00, -1.34948459e-01, 2.08127356e-02, -1.68744613e-01, 0.00000000e+00, -8.10775749e+00, 0.00000000e+00, 0.00000000e+00, -4.47610055e+02, 4.11069898e+02, 0.00000000e+00, -4.15736651e+00, -1.33712761e+00, -1.59125543e+00, 1.29624171e+00, 0.00000000e+00, -1.4538162936, 3.9813000273, -1.7515723792, 3.8684094987, 10.0000000000, 79.4494645450, 0.1120513717
          70, -1.92984849e-01, 1.76769405e-02, 0.00000000e+00, 0.00000000e+00, 0.00000000e+00, -1.40703030e-01, 1.76769405e-02, -1.92984849e-01, 0.00000000e+00, -1.09173219e+01, 0.00000000e+00, 0.00000000e+00, -3.22376143e+02, 3.06128286e+02, 0.00000000e+00, -4.37820317e+00, -1.45864880e+00, -1.74972329e+00, 1.09786039e+00, 0.00000000e+00, -1.6119289487, 3.6385396895, -1.9576020246, 3.3630141229, 10.0000000000, 97.2679593833, 0.1307196180
          80, -1.85508382e-01, 1.50530026e-02, 0.00000000e+00, 0.00000000e+00, 0.00000000e+00, -1.40055725e-01, 1.50530026e-02, -1.85508382e-01, 0.00000000e+00, -1.23236796e+01, 0.00000000e+00, 0.00000000e+00, -2.31391358e+02, 2.37415164e+02, 0.00000000e+00, -4.56873084e+00, -1.55224593e+00, -2.07372767e+00, 9.15260874e-01, 0.00000000e+00, -1.7753078670, 3.2997505236, -2.1220380350, 3.1852363567, 10.0000000000, 115.4333000398, 0.1492641608
          90, -1.86612417e-01, 1.26011500e-02, 0.00000000e+00, 0.00000000e+00, 0.00000000e+00, -1.40117584e-01, 1.26011500e-02, -1.86612417e-01, 0.00000000e+00, -1.48091576e+01, 0.00000000e+00, 0.00000000e+00, -1.60667013e+02, 1.97920388e+02, 0.00000000e+00, -4.96858284e+00, -1.66249528e+00, -2.34623011e+00, 5.00918972e-01, 0.00000000e+00, -1.9815920656, 2.9323707997, -2.2531085693, 2.9543292838, 10.0000000000, 181.2329201599, 0.1679083745
         100, -1.87018905e-01, 1.04656028e-02, 0.00000000e+00, 0.00000000e+00, 0.00000000e+00, -1.40304814e-01, 1.04656028e-02, -1.87018905e-01, 0.00000000e+00, -1.78698645e+01, 0.00000000e+00, 0.00000000e+00, -1.09178035e+02, 1.78368456e+02, 0.00000000e+00, -5.18056185e+00, -1.76298930e+00, -2.63312202e+00, 2.82344403e-01, 0.00000000e+00, -2.1719274010, 2.5414528260, -2.3586365026, 2.9038284961, 10.0000000000, 226.6539005390, 0.1878672560
         110, -1.87234398e-01, 8.71651223e-03, 0.00000000e+00, 0.00000000e+00, 0.00000000e+00, -1.40463267e-01, 8.71651223e-03, -1.87234398e-01, 0.00000000e+00, -2.14804262e+01, 0.00000000e+00, 0.00000000e+00, -7.46739622e+01, 1.70050730e+02, 0.00000000e+00, -5.33699524e+00, -1.85973823e+00, -2.84217226e+00, 1.26801841e-01, 0.00000000e+00, -2.3126866677, 2.1674159343, -2.4633906672, 2.7042575028, 10.0000000000, 272.4579080149, 0.2079559326
         120, -1.87331196e-01, 7.35025540e-03, 0.00000000e+00, 0.00000000e+00, 0.00000000e+00, -1.40548435e-01, 7.35025540e-03, -1.87331196e-01, 0.00000000e+00, -2.54863520e+01, 0.00000000e+00, 0.00000000e+00, -5.24341812e+01, 1.64515945e+02, 0.00000000e+00, -5.47194484e+00, -1.94852537e+00, -3.01370545e+00, -5.94892135e-03, 0.00000000e+00, -2.4391066017, 1.8491699755, -2.5800200907, 2.2834784875, 10.0000000000, 299.7000000000, 0.2279779236
         130, -1.87340041e-01, 6.36762629e-03, 0.00000000e+00, 0.00000000e+00, 0.00000000e+00, -1.40576777e-01, 6.36762629e-03, -1.87340041e-01, 0.00000000e+00, -2.94207028e+01, 0.00000000e+00, 0.00000000e+00, -3.90035886e+01, 1.59767269e+02, 0.00000000e+00, -5.59517436e+00, -2.02251455e+00, -3.17582852e+00, -1.28854207e-01, 0.00000000e+00, -2.5516940274, 1.6172251219, -2.6994617958, 2.4652704823, 10.0000000000, 299.7000000000, 0.2465511322
         140, -1.87398237e-01, 5.63276512e-03, 0.00000000e+00, 0.00000000e+00, 0.00000000e+00, -1.40625378e-01, 5.63276512e-03, -1.87398237e-01, 0.00000000e+00, -3.32693150e+01, 0.00000000e+00, 0.00000000e+00, -3.03511522e+01, 1.56306662e+02, 0.00000000e+00, -5.69235375e+00, -2.08478382e+00, -3.32398760e+00, -2.25904783e-01, 0.00000000e+00, -2.6417949228, 1.4428418299, -2.8208953944, 2.6534897873, 10.0000000000, 299.7000000000, 0.2647611539
         150, -1.87391240e-01, 5.05945212e-03, 0.00000000e+00, 0.00000000e+00, 0.00000000e+00, -1.40635462e-01, 5.05945212e-03, -1.87391240e-01, 0.00000000e+00, -3.70378521e+01, 0.00000000e+00, 0.00000000e+00, -2.43762457e+01, 1.46939860e+02, 0.00000000e+00, -5.77087181e+00, -2.13865185e+00, -3.46264657e+00, -3.04552534e-01, 0.00000000e+00, -2.7155685540, 3.1190683314, -2.9439899460, 2.1751755093, 10.0000000000, 299.7000000000, 0.2834361593
         160, -1.87406362e-01, 4.59813713e-03, 0.00000000e+00, 0.00000000e+00, 0.00000000e+00, -1.40654223e-01, 4.59813713e-03, -1.87406362e-01, 0.00000000e+00, -4.07570188e+01, 0.00000000e+00, 0.00000000e+00, -2.00687921e+01, 1.43784722e+02, 0.00000000e+00, -5.83680366e+00, -2.18619945e+00, -3.59143734e+00, -3.70273266e-01, 0.00000000e+00, -2.8448449871, 1.4121945357, -3.0677762823, 1.9863399697, 10.0000000000, 299.7000000000, 0.3017485976
         170, -1.87410093e-01, 4.21815562e-03, 0.00000000e+00, 0.00000000e+00, 0.00000000e+00, -1.40665823e-01, 4.21815562e-03, -1.87410093e-01, 0.00000000e+00, -4.44293929e+01, 0.00000000e+00, 0.00000000e+00, -1.68449687e+01, 1.40774632e+02, 0.00000000e+00, -5.89605629e+00, -2.22877433e+00, -3.71734952e+00, -4.29186182e-01, 0.00000000e+00, -2.9390941323, 1.9284029579, -3.1905195899, 2.1540664771, 10.0000000000, 299.7000000000, 0.3202450593
         180, -1.87405692e-01, 3.89919139e-03, 0.00000000e+00, 0.00000000e+00, 0.00000000e+00, -1.40670682e-01, 3.89919139e-03, -1.87405692e-01, 0.00000000e+00, -4.80627065e+01, 0.00000000e+00, 0.00000000e+00, -1.43657193e+01, 1.38579117e+02, 0.00000000e+00, -5.94924982e+00, -2.26736225e+00, -3.85581893e+00, -4.82092084e-01, 0.00000000e+00, -3.0263809681, 2.2762418602, -3.3106022258, 1.8479529092, 10.0000000000, 299.7000000000, 0.3383904815
         190, -1.87409776e-01, 3.62726569e-03, 0.00000000e+00, 0.00000000e+00, 0.00000000e+00, -1.40680053e-01, 3.62726569e-03, -1.87409776e-01, 0.00000000e+00, -5.16669557e+01, 0.00000000e+00, 0.00000000e+00, -1.24147294e+01, 1.36374696e+02, 0.00000000e+00, -5.99450610e+00, -2.30265361e+00, -3.98106333e+00, -5.26690552e-01, 0.00000000e+00, -3.1092554456, 1.5848791872, -3.4263107943, 1.8350976474, 10.0000000000, 299.7000000000, 0.3580652912
         200, -1.87402871e-01, 3.39248504e-03, 0.00000000e+00, 0.00000000e+00, 0.00000000e+00, -1.40682068e-01, 3.39248504e-03, -1.87402871e-01, 0.00000000e+00, -5.52405888e+01, 0.00000000e+00, 0.00000000e+00, -1.08501666e+01, 1.34030921e+02, 0.00000000e+00, -6.03523018e+00, -2.33518446e+00, -4.11955640e+00, -5.66842417e-01, 0.00000000e+00, -3.1841566330, 1.9030078001, -3.5364596052, 1.9339673184, 10.0000000000, 299.7000000000, 0.3784383178
         210, -1.87402255e-01, 3.18759066e-03, 0.00000000e+00, 0.00000000e+00, 0.00000000e+00, -1.40687150e-01, 3.18759066e-03, -1.87402255e-01, 0.00000000e+00, -5.87911922e+01, 0.00000000e+00, 0.00000000e+00, -9.57544229e+00, 1.31613773e+02, 0.00000000e+00, -6.07066360e+00, -2.36536790e+00, -4.23263352e+00, -6.01424052e-01, 0.00000000e+00, -3.2486206234, 1.8271083347, -3.6396664525, 1.6483640735, 10.0000000000, 299.7000000000, 0.3980061094
         220, -1.87396978e-01, 3.00713402e-03, 0.00000000e+00, 0.00000000e+00, 0.00000000e+00, -1.40689076e-01, 3.00713402e-03, -1.87396978e-01, 0.00000000e+00, -6.23174678e+01, 0.00000000e+00, 0.00000000e+00, -8.52316108e+00, 1.29307368e+02, 0.00000000e+00, -6.10348078e+00, -2.39352358e+00, -4.34049581e+00, -6.33379343e-01, 0.00000000e+00, -3.2988216470, 1.4336092159, -3.7352970701, 1.7825385345, 10.0000000000, 299.7000000000, 0.4176916560
         230, -1.87393132e-01, 2.84694585e-03, 0.00000000e+00, 0.00000000e+00, 0.00000000e+00, -1.40691207e-01, 2.84694585e-03, -1.87393132e-01, 0.00000000e+00, -6.58225136e+01, 0.00000000e+00, 0.00000000e+00, -7.64467830e+00, 1.27207950e+02, 0.00000000e+00, -6.13367059e+00, -2.41991794e+00, -4.45116159e+00, -6.62629201e-01, 0.00000000e+00, -3.3294580488, 0.9309532205, -3.8223197760, 1.6835292317, 10.0000000000, 299.7000000000, 0.4373631477
         240, -1.87388721e-01, 2.70372072e-03, 0.00000000e+00, 0.00000000e+00, 0.00000000e+00, -1.40692794e-01, 2.70372072e-03, -1.87388721e-01, 0.00000000e+00, -6.93077208e+01, 0.00000000e+00, 0.00000000e+00, -6.90221723e+00, 1.25308560e+02, 0.00000000e+00, -6.16168147e+00, -2.44475840e+00, -4.52333112e+00, -6.89602141e-01, 0.00000000e+00, -3.3320946241, 1.5006244783, -3.8985283297, 1.7414304215, 10.0000000000, 299.7000000000, 0.4563523134
         250, -1.87383604e-01, 2.57493334e-03, 0.00000000e+00, 0.00000000e+00, 0.00000000e+00, -1.40693502e-01, 2.57493334e-03, -1.87383604e-01, 0.00000000e+00, -7.27722158e+01, 0.00000000e+00, 0.00000000e+00, -6.27289631e+00, 1.23579054e+02, 0.00000000e+00, -6.18824681e+00, -2.46822063e+00, -4.63055359e+00, -7.15106613e-01, 0.00000000e+00, -3.3046792392, 1.2915788652, -3.9534607349, 1.8663950996, 10.0000000000, 299.7000000000, 0.4756582061
         260, -1.87379125e-01, 2.45852950e-03, 0.00000000e+00, 0.00000000e+00, 0.00000000e+00, -1.40694473e-01, 2.45852950e-03, -1.87379125e-01, 0.00000000e+00, -7.62159351e+01, 0.00000000e+00, 0.00000000e+00, -5.73451003e+00, 1.21990282e+02, 0.00000000e+00, -6.21294969e+00, -2.49043897e+00, -4.66284070e+00, -7.38578182e-01, 0.00000000e+00, -3.2233355835, 1.2708890196, -3.9633796902, 1.9050730712, 10.0000000000, 299.7000000000, 0.4942871094
         270, -1.87373535e-01, 2.35281752e-03, 0.00000000e+00, 0.00000000e+00, 0.00000000e+00, -1.40694632e-01, 2.35281752e-03, -1.87373535e-01, 0.00000000e+00, -7.96379377e+01, 0.00000000e+00, 0.00000000e+00, -5.26963792e+00, 1.20517357e+02, 0.00000000e+00, -6.23660528e+00, -2.51150973e+00, -4.71263708e+00, -7.60924222e-01, 0.00000000e+00, -3.1278922598, 1.1995911519, -3.8963258421, 1.9754288959, 10.0000000000, 299.7000000000, 0.5143264254
         280, -1.87368340e-01, 2.25652748e-03, 0.00000000e+00, 0.00000000e+00, 0.00000000e+00, -1.40695106e-01, 2.25652748e-03, -1.87368340e-01, 0.00000000e+00, -8.30339279e+01, 0.00000000e+00, 0.00000000e+00, -4.87063125e+00, 1.19142383e+02, 0.00000000e+00, -6.25874797e+00, -2.53147769e+00, -4.69296683e+00, -7.81559745e-01, 0.00000000e+00, -3.0003671884, 1.3559243629, -3.7648715945, 2.0231921453, 10.0000000000, 299.7000000000, 0.5354862452
         290, -1.87362069e-01, 2.16859966e-03, 0.00000000e+00, 0.00000000e+00, 0.00000000e+00, -1.40695220e-01, 2.16859966e-03, -1.87362069e-01, 0.00000000e+00, -8.63977214e+01, 0.00000000e+00, 0.00000000e+00, -4.52623318e+00, 1.17856888e+02, 0.00000000e+00, -6.27980152e+00, -2.55033233e+00, -4.65237333e+00, -8.00945235e-01, 0.00000000e+00, -2.8783355818, 2.2066019957, -3.6196198471, 2.1112259419, 10.0000000000, 299.7000000000, 0.5546910048
         300, -1.87355404e-01, 2.08827866e-03, 0.00000000e+00, 0.00000000e+00, 0.00000000e+00, -1.40695584e-01, 2.08827866e-03, -1.87355404e-01, 0.00000000e+00, -8.97176260e+01, 0.00000000e+00, 0.00000000e+00, -4.23551502e+00, 1.16655610e+02, 0.00000000e+00, -6.29949930e+00, -2.56804911e+00, -4.58172604e+00, -8.18807023e-01, 0.00000000e+00, -2.7784771092, 1.4283588972, -3.4984765070, 2.1520812821, 10.0000000000, 299.7000000000, 0.5737784306
         310, -1.87347741e-01, 2.01498258e-03, 0.00000000e+00, 0.00000000e+00, 0.00000000e+00, -1.40696048e-01, 2.01498258e-03, -1.87347741e-01, 0.00000000e+00, -9.29773501e+01, 0.00000000e+00, 0.00000000e+00, -3.98850442e+00, 1.15531442e+02, 0.00000000e+00, -6.31801985e+00, -2.58465961e+00, -4.49987308e+00, -8.35395507e-01, 0.00000000e+00, -2.6697490168, 1.9010743167, -3.4183817565, 2.1735241120, 10.0000000000, 299.7000000000, 0.5921950658
         320, -1.87339302e-01, 1.94838514e-03, 0.00000000e+00, 0.00000000e+00, 0.00000000e+00, -1.40696751e-01, 1.94838514e-03, -1.87339302e-01, 0.00000000e+00, -9.61510629e+01, 0.00000000e+00, 0.00000000e+00, -3.78828125e+00, 1.14476172e+02, 0.00000000e+00, -6.33565877e+00, -2.60037931e+00, -4.42805345e+00, -8.51029981e-01, 0.00000000e+00, -2.5831882374, 2.8095636638, -3.3820195631, 2.1973495425, 10.0000000000, 299.7000000000, 0.6138025125
         330, -1.87330346e-01, 1.88798344e-03, 0.00000000e+00, 0.00000000e+00, 0.00000000e+00, -1.40697710e-01, 1.88798344e-03, -1.87330346e-01, 0.00000000e+00, -9.92224522e+01, 0.00000000e+00, 0.00000000e+00, -3.62393202e+00, 1.13480184e+02, 0.00000000e+00, -6.35263739e+00, -2.61552438e+00, -4.37515263e+00, -8.65916428e-01, 0.00000000e+00, -2.5117144763, 1.5759173726, -3.3462416140, 2.1805098982, 10.0000000000, 299.7000000000, 0.6360831420
         340, -1.87321035e-01, 1.83321404e-03, 0.00000000e+00, 0.00000000e+00, 0.00000000e+00, -1.40698754e-01, 1.83321404e-03, -1.87321035e-01, 0.00000000e+00, -1.02181759e+02, 0.00000000e+00, 0.00000000e+00, -3.47917652e+00, 1.12535159e+02, 0.00000000e+00, -6.36931982e+00, -2.63023070e+00, -4.36323039e+00, -8.80287637e-01, 0.00000000e+00, -2.4367841406, 2.7707130714, -3.3112154569, 2.2908014314, 10.0000000000, 299.7000000000, 0.6594385068
         350, -1.87311648e-01, 1.78362553e-03, 0.00000000e+00, 0.00000000e+00, 0.00000000e+00, -1.40699965e-01, 1.78362553e-03, -1.87311648e-01, 0.00000000e+00, -1.05017362e+02, 0.00000000e+00, 0.00000000e+00, -3.38152678e+00, 1.11635328e+02, 0.00000000e+00, -6.38588751e+00, -2.64456715e+00, -4.36563694e+00, -8.94276429e-01, 0.00000000e+00, -2.4107531289, 3.4277199751, -3.2546466688, 2.2264462644, 10.0000000000, 299.7000000000, 0.6785962780
         360, -1.87302469e-01, 1.73782678e-03, 0.00000000e+00, 0.00000000e+00, 0.00000000e+00, -1.40701132e-01, 1.73782678e-03, -1.87302469e-01, 0.00000000e+00, -1.07779712e+02, 0.00000000e+00, 0.00000000e+00, -3.27685176e+00, 1.10776535e+02, 0.00000000e+00, -6.40058947e+00, -2.65818238e+00, -4.31977834e+00, -9.06514788e-01, 0.00000000e+00, -2.3802648792, 2.1059001770, -3.2102899664, 2.2777607115, 10.0000000000, 299.7000000000, 0.6970122774
         370, -1.87293626e-01, 1.69525623e-03, 0.00000000e+00, 0.00000000e+00, 0.00000000e+00, -1.40702249e-01, 1.69525623e-03, -1.87293626e-01, 0.00000000e+00, -1.10481014e+02, 0.00000000e+00, 0.00000000e+00, -3.17279484e+00, 1.09956158e+02, 0.00000000e+00, -6.41576443e+00, -2.67137157e+00, -4.32474129e+00, -9.19005385e-01, 0.00000000e+00, -2.3444101470, 2.9380646639, -3.1811729580, 2.5229026066, 10.0000000000, 299.7000000000, 0.7155787071
         380, -1.87285106e-01, 1.65550004e-03, 0.00000000e+00, 0.00000000e+00, 0.00000000e+00, -1.40703235e-01, 1.65550004e-03, -1.87285106e-01, 0.00000000e+00, -1.13129026e+02, 0.00000000e+00, 0.00000000e+00, -3.07931141e+00, 1.09172084e+02, 0.00000000e+00, -6.43093228e+00, -2.68404950e+00, -4.30197352e+00, -9.31252617e-01, 0.00000000e+00, -2.3349202903, 3.3275983144, -3.1177465358, 2.5506604940, 10.0000000000, 299.7000000000, 0.7340009451
         390, -1.87276675e-01, 1.61821480e-03, 0.00000000e+00, 0.00000000e+00, 0.00000000e+00, -1.40704115e-01, 1.61821480e-03, -1.87276675e-01, 0.00000000e+00, -1.15730418e+02, 0.00000000e+00, 0.00000000e+00, -3.05298281e+00, 1.08423469e+02, 0.00000000e+00, -6.44410405e+00, -2.69601562e+00, -4.32599431e+00, -9.41804599e-01, 0.00000000e+00, -2.3298349145, 2.9801226739, -3.1010777427, 2.3230734341, 10.0000000000, 299.7000000000, 0.7528661211
         400, -1.87268976e-01, 1.58248572e-03, 0.00000000e+00, 0.00000000e+00, 0.00000000e+00, -1.40704730e-01, 1.58248572e-03, -1.87268976e-01, 0.00000000e+00, -1.18338494e+02, 0.00000000e+00, 0.00000000e+00, -2.97069374e+00, 1.07709901e+02, 0.00000000e+00, -6.45797904e+00, -2.70759259e+00, -4.29171571e+00, -9.52928963e-01, 0.00000000e+00, -2.3299904316, 2.6671672144, -3.0565441210, 2.3084996485, 10.0000000000, 299.9931446947, 0.7709298889
         410, -1.87261694e-01, 1.54868602e-03, 0.00000000e+00, 0.00000000e+00, 0.00000000e+00, -1.40705167e-01, 1.54868602e-03, -1.87261694e-01, 0.00000000e+00, -1.20916501e+02, 0.00000000e+00, 0.00000000e+00, -2.88859154e+00, 1.07032326e+02, 0.00000000e+00, -6.47324691e+00, -2.71857830e+00, -4.28561610e+00, -9.65157075e-01, 0.00000000e+00, -2.3072489097, 3.0011102219, -3.0204117591, 2.5804830533, 10.0000000000, 299.7000000000, 0.7894665877
         420, -1.87254787e-01, 1.51688797e-03, 0.00000000e+00, 0.00000000e+00, 0.00000000e+00, -1.40705437e-01, 1.51688797e-03, -1.87254787e-01, 0.00000000e+00, -1.23446682e+02, 0.00000000e+00, 0.00000000e+00, -2.82809457e+00, 1.06391986e+02, 0.00000000e+00, -6.48027459e+00, -2.72883405e+00, -4.30094906e+00, -9.70913273e-01, 0.00000000e+00, -2.2963284614, 3.5080662011, -3.0216742748, 2.3836097297, 10.0000000000, 299.7000000000, 0.8074579676
         430, -1.87247817e-01, 1.48701238e-03, 0.00000000e+00, 0.00000000e+00, 0.00000000e+00, -1.40705652e-01, 1.48701238e-03, -1.87247817e-01, 0.00000000e+00, -1.25922164e+02, 0.00000000e+00, 0.00000000e+00, -2.81712252e+00, 1.05804290e+02, 0.00000000e+00, -6.49347258e+00, -2.73895058e+00, -4.30314699e+00, -9.81609959e-01, 0.00000000e+00, -2.3026476022, 3.6192574504, -2.9783064166, 2.7640118766, 10.0000000000, 296.8663282060, 0.8256856362
         440, -1.87241212e-01, 1.45861620e-03, 0.00000000e+00, 0.00000000e+00, 0.00000000e+00, -1.40705559e-01, 1.45861620e-03, -1.87241212e-01, 0.00000000e+00, -1.28369075e+02, 0.00000000e+00, 0.00000000e+00, -2.78352091e+00, 1.05285426e+02, 0.00000000e+00, -6.50555276e+00, -2.74835729e+00, -4.28755977e+00, -9.91380122e-01, 0.00000000e+00, -2.2980233969, 2.7217338864, -2.9610287669, 2.3065879238, 10.0000000000, 297.7041368465, 0.8444846551
         450, -1.87234780e-01, 1.43159439e-03, 0.00000000e+00, 0.00000000e+00, 0.00000000e+00, -1.40705289e-01, 1.43159439e-03, -1.87234780e-01, 0.00000000e+00, -1.30787590e+02, 0.00000000e+00, 0.00000000e+00, -2.73207269e+00, 1.04815869e+02, 0.00000000e+00, -6.51039247e+00, -2.75730203e+00, -4.26061022e+00, -9.95711095e-01, 0.00000000e+00, -2.2867858190, 2.4908577101, -2.9470596801, 2.3328914660, 10.0000000000, 296.3698879517, 0.8623694420
         460, -1.87228403e-01, 1.40623051e-03, 0.00000000e+00, 0.00000000e+00, 0.00000000e+00, -1.40704812e-01, 1.40623051e-03, -1.87228403e-01, 0.00000000e+00, -1.33142043e+02, 0.00000000e+00, 0.00000000e+00, -2.68264686e+00, 1.04391809e+02, 0.00000000e+00, -6.52362137e+00, -2.76574444e+00, -4.25433623e+00, -1.00676537e+00, 0.00000000e+00, -2.2719745834, 3.1136019805, -2.9283210106, 2.6017485298, 10.0000000000, 291.7358116278, 0.8807945093
         470, -1.87221962e-01, 1.38247469e-03, 0.00000000e+00, 0.00000000e+00, 0.00000000e+00, -1.40704040e-01, 1.38247469e-03, -1.87221962e-01, 0.00000000e+00, -1.35425237e+02, 0.00000000e+00, 0.00000000e+00, -2.65092167e+00, 1.04009872e+02, 0.00000000e+00, -6.52897545e+00, -2.77363399e+00, -4.24918865e+00, -1.01169516e+00, 0.00000000e+00, -2.2521938359, 3.3794789817, -2.9212840376, 2.5223415723, 10.0000000000, 293.9682111490, 0.8986939867
         480, -1.87215248e-01, 1.36023302e-03, 0.00000000e+00, 0.00000000e+00, 0.00000000e+00, -1.40703200e-01, 1.36023302e-03, -1.87215248e-01, 0.00000000e+00, -1.37634688e+02, 0.00000000e+00, 0.00000000e+00, -2.67310903e+00, 1.03667828e+02, 0.00000000e+00, -6.53531339e+00, -2.78118645e+00, -4.25324878e+00, -1.01755593e+00, 0.00000000e+00, -2.2660481716, 3.6649930099, -2.8971857476, 2.3368231582, 10.0000000000, 289.7056023140, 0.9165549874
         490, -1.87208825e-01, 1.33898799e-03, 0.00000000e+00, 0.00000000e+00, 0.00000000e+00, -1.40702016e-01, 1.33898799e-03, -1.87208825e-01, 0.00000000e+00, -1.39813670e+02, 0.00000000e+00, 0.00000000e+00, -2.64337281e+00, 1.03362533e+02, 0.00000000e+00, -6.54424477e+00, -2.78818543e+00, -4.24377763e+00, -1.02546970e+00, 0.00000000e+00, -2.2443847080, 2.6346857967, -2.8739650783, 2.2800733879, 10.0000000000, 288.4654078888, 0.9344571471
         500, -1.87202358e-01, 1.31900789e-03, 0.00000000e+00, 0.00000000e+00, 0.00000000e+00, -1.40700592e-01, 1.31900789e-03, -1.87202358e-01, 0.00000000e+00, -1.41926641e+02, 0.00000000e+00, 0.00000000e+00, -2.61319239e+00, 1.03090270e+02, 0.00000000e+00, -6.55047369e+00, -2.79476804e+00, -4.24425430e+00, -1.03149161e+00, 0.00000000e+00, -2.2473655145, 2.8960688624, -2.8522747068, 2.5203866869, 10.0000000000, 287.3207520534, 0.9530846675
         510, -1.87195789e-01, 1.30041655e-03, 0.00000000e+00, 0.00000000e+00, 0.00000000e+00, -1.40698920e-01, 1.30041655e-03, -1.87195789e-01, 0.00000000e+00, -1.43950636e+02, 0.00000000e+00, 0.00000000e+00, -2.59404012e+00, 1.02848038e+02, 0.00000000e+00, -6.55702283e+00, -2.80087928e+00, -4.25133651e+00, -1.03768447e+00, 0.00000000e+00, -2.2276192996, 3.3877569663, -2.8302758314, 2.4939805561, 10.0000000000, 286.1170834304, 0.9738774896
         520, -1.87188968e-01, 1.28317649e-03, 0.00000000e+00, 0.00000000e+00, 0.00000000e+00, -1.40697071e-01, 1.28317649e-03, -1.87188968e-01, 0.00000000e+00, -1.45879363e+02, 0.00000000e+00, 0.00000000e+00, -2.63452948e+00, 1.02633620e+02, 0.00000000e+00, -6.56068089e+00, -2.80638024e+00, -4.26361550e+00, -1.04176190e+00, 0.00000000e+00, -2.2521838718, 3.0890119539, -2.8092417733, 2.3497404515, 10.0000000000, 283.0387737214, 0.9945272247
         530, -1.87182308e-01, 1.26681092e-03, 0.00000000e+00, 0.00000000e+00, 0.00000000e+00, -1.40694906e-01, 1.26681092e-03, -1.87182308e-01, 0.00000000e+00, -1.47758679e+02, 0.00000000e+00, 0.00000000e+00, -2.61568449e+00, 1.02444735e+02, 0.00000000e+00, -6.56546340e+00, -2.81129931e+00, -4.27338915e+00, -1.04738798e+00, 0.00000000e+00, -2.2305173749, 2.5966521333, -2.7932370537, 2.2983893349, 10.0000000000, 276.6306525405, 1.0135260423
         540, -1.87175621e-01, 1.25173619e-03, 0.00000000e+00, 0.00000000e+00, 0.00000000e+00, -1.40692434e-01, 1.25173619e-03, -1.87175621e-01, 0.00000000e+00, -1.49532803e+02, 0.00000000e+00, 0.00000000e+00, -2.59270335e+00, 1.02278123e+02, 0.00000000e+00, -6.56941456e+00, -2.81560119e+00, -4.24148966e+00, -1.05200528e+00, 0.00000000e+00, -2.2339622563, 3.2316696411, -2.7743123531, 2.6107524644, 10.0000000000, 270.7221818325, 1.0318204721
         550, -1.87168656e-01, 1.23800792e-03, 0.00000000e+00, 0.00000000e+00, 0.00000000e+00, -1.40689706e-01, 1.23800792e-03, -1.87168656e-01, 0.00000000e+00, -1.51185347e+02, 0.00000000e+00, 0.00000000e+00, -2.60012988e+00, 1.02131829e+02, 0.00000000e+00, -6.57367265e+00, -2.81915019e+00, -4.22039339e+00, -1.05708092e+00, 0.00000000e+00, -2.2527882916, 3.1696903571, -2.7645821855, 2.6498415929, 10.0000000000, 262.0855808069, 1.0514301181
         560, -1.87161637e-01, 1.22550379e-03, 0.00000000e+00, 0.00000000e+00, 0.00000000e+00, -1.40686746e-01, 1.22550379e-03, -1.87161637e-01, 0.00000000e+00, -1.52722202e+02, 0.00000000e+00, 0.00000000e+00, -2.62836645e+00, 1.02004044e+02, 0.00000000e+00, -6.57663836e+00, -2.82177234e+00, -4.17179279e+00, -1.06153508e+00, 0.00000000e+00, -2.2583729345, 2.8584175467, -2.7762744458, 2.3783862909, 10.0000000000, 251.5954432164, 1.0764656981
         570, -1.87154813e-01, 1.21404199e-03, 0.00000000e+00, 0.00000000e+00, 0.00000000e+00, -1.40683600e-01, 1.21404199e-03, -1.87154813e-01, 0.00000000e+00, -1.54158435e+02, 0.00000000e+00, 0.00000000e+00, -2.62212746e+00, 1.01893274e+02, 0.00000000e+00, -6.57850842e+00, -2.82312419e+00, -4.16493318e+00, -1.06508400e+00, 0.00000000e+00, -2.2481115565, 2.6313797220, -2.8012174212, 2.4349769735, 10.0000000000, 237.8530700242, 1.1049439907
         580, -1.87147949e-01, 1.20389408e-03, 0.00000000e+00, 0.00000000e+00, 0.00000000e+00, -1.40680251e-01, 1.20389408e-03, -1.87147949e-01, 0.00000000e+00, -1.55452172e+02, 0.00000000e+00, 0.00000000e+00, -2.61835518e+00, 1.01796297e+02, 0.00000000e+00, -6.57489626e+00, -2.82432755e+00, -4.15215228e+00, -1.06419864e+00, 0.00000000e+00, -2.2261400010, 3.3252635969, -2.8007291003, 2.3499984971, 10.0000000000, 225.3346549921, 1.1272129456
         590, -1.87140971e-01, 1.19484759e-03, 0.00000000e+00, 0.00000000e+00, 0.00000000e+00, -1.40676747e-01, 1.19484759e-03, -1.87140971e-01, 0.00000000e+00, -1.56623299e+02, 0.00000000e+00, 0.00000000e+00, -2.67384848e+00, 1.01710487e+02, 0.00000000e+00, -6.57673177e+00, -2.82559563e+00, -4.14997856e+00, -1.06714185e+00, 0.00000000e+00, -2.2104494152, 2.7659329577, -2.7767662210, 2.3381366549, 10.0000000000, 212.8512817507, 1.1464088599
         600, -1.87134318e-01, 1.18632370e-03, 0.00000000e+00, 0.00000000e+00, 0.00000000e+00, -1.40673038e-01, 1.18632370e-03, -1.87134318e-01, 0.00000000e+00, -1.57743049e+02, 0.00000000e+00, 0.00000000e+00, -2.67076614e+00, 1.01633893e+02, 0.00000000e+00, -6.58128067e+00, -2.82629859e+00, -4.15369319e+00, -1.07260916e+00, 0.00000000e+00, -2.2020710329, 2.4619496143, -2.7509923933, 2.3400238897, 10.0000000000, 202.5195968549, 1.1655446649
         610, -1.87127606e-01, 1.17865844e-03, 0.00000000e+00, 0.00000000e+00, 0.00000000e+00, -1.40669057e-01, 1.17865844e-03, -1.87127606e-01, 0.00000000e+00, -1.58763217e+02, 0.00000000e+00, 0.00000000e+00, -2.66696665e+00, 1.01564679e+02, 0.00000000e+00, -6.58305614e+00, -2.82650925e+00, -4.17380629e+00, -1.07568978e+00, 0.00000000e+00, -2.1916550234, 3.2956004660, -2.7327390827, 2.4208495221, 10.0000000000, 197.1376177301, 1.1855812073
         620, -1.87120600e-01, 1.17183642e-03, 0.00000000e+00, 0.00000000e+00, 0.00000000e+00, -1.40664870e-01, 1.17183642e-03, -1.87120600e-01, 0.00000000e+00, -1.59681502e+02, 0.00000000e+00, 0.00000000e+00, -2.71848345e+00, 1.01501805e+02, 0.00000000e+00, -6.57984448e+00, -2.82615028e+00, -4.20440030e+00, -1.07499547e+00, 0.00000000e+00, -2.1803439911, 3.4534195100, -2.7163350045, 2.3149797602, 10.0000000000, 192.3766464581, 1.2053320169
         630, -1.87113840e-01, 1.16537910e-03, 0.00000000e+00, 0.00000000e+00, 0.00000000e+00, -1.40660587e-01, 1.16537910e-03, -1.87113840e-01, 0.00000000e+00, -1.60560490e+02, 0.00000000e+00, 0.00000000e+00, -2.72786273e+00, 1.01444898e+02, 0.00000000e+00, -6.57904585e+00, -2.82546725e+00, -4.16517204e+00, -1.07634765e+00, 0.00000000e+00, -2.1863758766, 2.3131339485, -2.6956447333, 2.3834375791, 10.0000000000, 182.1716582885, 1.2292694608
         640, -1.87107105e-01, 1.15966362e-03, 0.00000000e+00, 0.00000000e+00, 0.00000000e+00, -1.40656160e-01, 1.15966362e-03, -1.87107105e-01, 0.00000000e+00, -1.61346016e+02, 0.00000000e+00, 0.00000000e+00, -2.72740285e+00, 1.01393142e+02, 0.00000000e+00, -6.58114608e+00, -2.82417405e+00, -4.15285450e+00, -1.07978149e+00, 0.00000000e+00, -2.1869183493, 3.2284307492, -2.6864668230, 2.4253234945, 10.0000000000, 174.1032275013, 1.2569464207
         650, -1.87100146e-01, 1.15471109e-03, 0.00000000e+00, 0.00000000e+00, 0.00000000e+00, -1.40651628e-01, 1.15471109e-03, -1.87100146e-01, 0.00000000e+00, -1.62031999e+02, 0.00000000e+00, 0.00000000e+00, -2.77827936e+00, 1.01346278e+02, 0.00000000e+00, -6.58175751e+00, -2.82237038e+00, -4.16210453e+00, -1.08172997e+00, 0.00000000e+00, -2.1822860310, 3.4682324807, -2.6724719803, 2.4336002936, 10.0000000000, 167.7515728816, 1.2851640940