TITLE = "SU2 Simulation"
VARIABLES = "Iteration","CL","CD","CSF","CMx","CMy","CMz","CFx","CFy","CFz","CL/CD","AoA","Custom_ObjFunc","HeatFlux_Total","HeatFlux_Maximum","Temperature_Total","Res_Flow[0]","Res_Flow[1]","Res_Flow[2]","Res_Flow[3]","Res_Flow[4]"," Res_Turb[0]"," Res_Turb[1]"," Res_Turb[2]"," Res_Turb[3]","Linear_Solver_Iterations","CFL_Number","Time(min)"
ZONE T= "Convergence history"
           0, -4.07953221e-01, 1.13662807e-01, 0.00000000e+00, 0.00000000e+00, 0.00000000e+00, -3.05967613e-01, 1.13662807e-01, -4.07953221e-01, 0.00000000e+00, -3.58915314e+00, 0.00000000e+00, 0.00000000e+00, -1.50998968e+07, 1.36025292e+07, 0.00000000e+00, -1.56622260e+01, -6.11260646e+00, -6.57313479e+00, 4.97621321e+00, 0.00000000e+00, 4.6555459533, 4.1118804899, -3.3524892729, 9.7310735136, 1.0000000000, 1.0000000000, 0.0013692419
          10, -1.93157086e-01, 6.02158838e-02, 0.00000000e+00, 0.00000000e+00, 0.00000000e+00, -1.44915249e-01, 6.02158838e-02, -1.93157086e-01, 0.00000000e+00, -3.20774310e+00, 0.00000000e+00, 0.00000000e+00, -3.12752254e+06, 2.81659156e+06, 0.00000000e+00, -1.21913491e+00, 1.66972103e+00, 1.21951695e+00, 4.56931007e+00, 0.00000000e+00, 2.1699386019, 8.6573744129, -0.7184068306, 5.3696654196, 2.0000000000, 1.0010000000, 0.0131717682
          20, -9.36379267e-02, 3.58799769e-02, 0.00000000e+00, 0.00000000e+00, 0.00000000e+00, -7.02556535e-02, 3.58799769e-02, -9.36379267e-02, 0.00000000e+00, -2.60975438e+00, 0.00000000e+00, 0.00000000e+00, -8.63621009e+05, 7.80340648e+05, 0.00000000e+00, -1.29709360e+00, 1.58913967e+00, 1.21537512e+00, 4.46962349e+00, 0.00000000e+00, 1.8922617405, 8.3843195514, -0.9475910374, 4.8161118413, 2.0000000000, 1.0766906439, 0.0246315718
          30, -5.11273474e-02, 2.81387273e-02, 0.00000000e+00, 0.00000000e+00, 0.00000000e+00, -3.83564769e-02, 2.81387273e-02, -5.11273474e-02, 0.00000000e+00, -1.81697441e+00, 0.00000000e+00, 0.00000000e+00, -3.38149691e+05, 3.39569796e+05, 0.00000000e+00, -1.43980631e+00, 1.43057378e+00, 1.12328623e+00, 4.32086162e+00, 0.00000000e+00, 1.6989713628, 8.2092552116, -1.0981996339, 4.6142452175, 2.0000000000, 1.2723729211, 0.0360797922
          40, -3.07265623e-02, 2.44661919e-02, 0.00000000e+00, 0.00000000e+00, 0.00000000e+00, -2.30498995e-02, 2.44661919e-02, -3.07265623e-02, 0.00000000e+00, -1.25587842e+00, 0.00000000e+00, 0.00000000e+00, -2.08798660e+05, 2.41212118e+05, 0.00000000e+00, -1.53840887e+00, 1.32135135e+00, 1.04532002e+00, 4.22111417e+00, 0.00000000e+00, 1.5515846968, 8.0985976688, -1.2164540295, 4.0976862011, 2.0000000000, 1.4313006736, 0.0474994222
          50, -2.04829385e-02, 2.21911136e-02, 0.00000000e+00, 0.00000000e+00, 0.00000000e+00, -1.53649305e-02, 2.21911136e-02, -2.04829385e-02, 0.00000000e+00, -9.23024365e-01, 0.00000000e+00, 0.00000000e+00, -1.84327701e+05, 1.99027166e+05, 0.00000000e+00, -1.61017462e+00, 1.24405050e+00, 9.79103635e-01, 4.14772994e+00, 0.00000000e+00, 1.4436022020, 8.0170629805, -1.3117858109, 3.7217666550, 3.0000000000, 1.5579353123, 0.0592271169
          60, -1.47687514e-02, 2.04879428e-02, 0.00000000e+00, 0.00000000e+00, 0.00000000e+00, -1.10783669e-02, 2.04879428e-02, -1.47687514e-02, 0.00000000e+00, -7.20850872e-01, 0.00000000e+00, 0.00000000e+00, -1.74329439e+05, 1.73773480e+05, 0.00000000e+00, -1.66835725e+00, 1.18315806e+00, 9.21168094e-01, 4.08812298e+00, 0.00000000e+00, 1.3544439805, 7.9484326906, -1.4053646074, 3.7232793988, 3.0000000000, 1.6689347773, 0.0712462425
          70, -1.13590158e-02, 1.91143384e-02, 0.00000000e+00, 0.00000000e+00, 0.00000000e+00, -8.52017755e-03, 1.91143384e-02, -1.13590158e-02, 0.00000000e+00, -5.94266750e-01, 0.00000000e+00, 0.00000000e+00, -1.61353484e+05, 1.55328920e+05, 0.00000000e+00, -1.71740670e+00, 1.13271782e+00, 8.70457299e-01, 4.03770990e+00, 0.00000000e+00, 1.2780806314, 7.8885906340, -1.5036403335, 3.7071658023, 4.0000000000, 1.7677500647, 0.0836921891
          80, -9.01139857e-03, 1.79351040e-02, 0.00000000e+00, 0.00000000e+00, 0.00000000e+00, -6.75870909e-03, 1.79351040e-02, -9.01139857e-03, 0.00000000e+00, -5.02444736e-01, 0.00000000e+00, 0.00000000e+00, -1.49124022e+05, 1.40825566e+05, 0.00000000e+00, -1.75529400e+00, 1.09380238e+00, 8.30426849e-01, 3.99843215e+00, 0.00000000e+00, 1.2131296171, 7.8346666726, -1.6087552046, 3.5924057121, 4.0000000000, 1.8488975883, 0.0960262855
          90, -7.48671318e-03, 1.69237214e-02, 0.00000000e+00, 0.00000000e+00, 0.00000000e+00, -5.61476830e-03, 1.69237214e-02, -7.48671318e-03, 0.00000000e+00, -4.42379840e-01, 0.00000000e+00, 0.00000000e+00, -1.35498663e+05, 1.26638023e+05, 0.00000000e+00, -1.77651083e+00, 1.07102055e+00, 8.06880423e-01, 3.97542524e+00, 0.00000000e+00, 1.1554402647, 7.7861537485, -1.7212312366, 3.5466203721, 4.0000000000, 1.8988631609, 0.1085028847
         100, -6.40092431e-03, 1.60463539e-02, 0.00000000e+00, 0.00000000e+00, 0.00000000e+00, -4.80007895e-03, 1.60463539e-02, -6.40092431e-03, 0.00000000e+00, -3.98902103e-01, 0.00000000e+00, 0.00000000e+00, -1.22974089e+05, 1.14050667e+05, 0.00000000e+00, -1.77796461e+00, 1.06616834e+00, 8.03719194e-01, 3.97099729e+00, 0.00000000e+00, 1.1061387409, 7.7445291414, -1.8346361348, 3.3350420092, 4.0000000000, 1.9014517144, 0.1208811442
         110, -5.70643019e-03, 1.53003816e-02, 0.00000000e+00, 0.00000000e+00, 0.00000000e+00, -4.27938825e-03, 1.53003816e-02, -5.70643019e-03, 0.00000000e+00, -3.72959993e-01, 0.00000000e+00, 0.00000000e+00, -1.11872035e+05, 1.03008693e+05, 0.00000000e+00, -1.76602730e+00, 1.07215966e+00, 8.14582948e-01, 3.97807128e+00, 0.00000000e+00, 1.0638345877, 7.7079633365, -1.9522502431, 3.2012693755, 3.0000000000, 1.8303495655, 0.1332388083
         120, -5.25992257e-03, 1.46707679e-02, 0.00000000e+00, 0.00000000e+00, 0.00000000e+00, -3.94500621e-03, 1.46707679e-02, -5.25992257e-03, 0.00000000e+00, -3.58530830e-01, 0.00000000e+00, 0.00000000e+00, -1.01758876e+05, 9.31394434e+04, 0.00000000e+00, -1.75128263e+00, 1.07908845e+00, 8.28305490e-01, 3.98646715e+00, 0.00000000e+00, 1.0272289200, 7.6104670473, -2.0643353394, 3.1099822854, 3.0000000000, 1.7390996734, 0.1452531854
         130, -4.94663450e-03, 1.41284248e-02, 0.00000000e+00, 0.00000000e+00, 0.00000000e+00, -3.71061849e-03, 1.41284248e-02, -4.94663450e-03, 0.00000000e+00, -3.50119320e-01, 0.00000000e+00, 0.00000000e+00, -9.21352613e+04, 8.41460123e+04, 0.00000000e+00, -1.74160141e+00, 1.08078126e+00, 8.36333069e-01, 3.98956846e+00, 0.00000000e+00, 0.9903109158, 7.7846936502, -2.1645721635, 3.1850084300, 3.0000000000, 1.6782705240, 0.1571539362
         140, -4.72678301e-03, 1.36454778e-02, 0.00000000e+00, 0.00000000e+00, 0.00000000e+00, -3.54565460e-03, 1.36454778e-02, -4.72678301e-03, 0.00000000e+00, -3.46399231e-01, 0.00000000e+00, 0.00000000e+00, -8.30145517e+04, 7.59236224e+04, 0.00000000e+00, -1.74249929e+00, 1.07307003e+00, 8.32848094e-01, 3.98286148e+00, 0.00000000e+00, 0.9530300363, 7.9043616717, -2.2774332172, 3.2561245088, 3.0000000000, 1.6698356509, 0.1693454345
         150, -4.55616252e-03, 1.31996828e-02, 0.00000000e+00, 0.00000000e+00, 0.00000000e+00, -3.41631509e-03, 1.31996828e-02, -4.55616252e-03, 0.00000000e+00, -3.45172121e-01, 0.00000000e+00, 0.00000000e+00, -7.47031442e+04, 6.85031275e+04, 0.00000000e+00, -1.75936172e+00, 1.05075312e+00, 8.12941133e-01, 3.96078768e+00, 0.00000000e+00, 0.9154463076, 7.9660963883, -2.3920274082, 3.3413266325, 3.0000000000, 1.6973618451, 0.1812566598
         160, -4.39967275e-03, 1.27769587e-02, 0.00000000e+00, 0.00000000e+00, 0.00000000e+00, -3.29690823e-03, 1.27769587e-02, -4.39967275e-03, 0.00000000e+00, -3.44344290e-01, 0.00000000e+00, 0.00000000e+00, -6.68576381e+04, 6.15420468e+04, 0.00000000e+00, -1.79435262e+00, 1.01030355e+00, 7.75565517e-01, 3.92013649e+00, 0.00000000e+00, 0.8771648436, 7.9941521374, -2.5112058340, 3.3686278159, 3.0000000000, 1.7628185322, 0.1931888223
         170, -4.25918066e-03, 1.23669871e-02, 0.00000000e+00, 0.00000000e+00, 0.00000000e+00, -3.18884928e-03, 1.23669871e-02, -4.25918066e-03, 0.00000000e+00, -3.44399217e-01, 0.00000000e+00, 0.00000000e+00, -5.95418522e+04, 5.51313131e+04, 0.00000000e+00, -1.85128597e+00, 9.45986565e-01, 7.16232631e-01, 3.85516248e+00, 0.00000000e+00, 0.8377703527, 8.0005496876, -2.6385378830, 3.4020512341, 3.0000000000, 1.8793200554, 0.2052130659
         180, -4.13646139e-03, 1.19604379e-02, 0.00000000e+00, 0.00000000e+00, 0.00000000e+00, -3.09258262e-03, 1.19604379e-02, -4.13646139e-03, 0.00000000e+00, -3.45845313e-01, 0.00000000e+00, 0.00000000e+00, -5.25514809e+04, 4.93505641e+04, 0.00000000e+00, -1.92867446e+00, 8.60846462e-01, 6.33973481e-01, 3.76875750e+00, 0.00000000e+00, 0.7966428772, 7.9904415464, -2.7766467120, 3.4485745380, 3.0000000000, 2.0503937160, 0.2171246926
         190, -3.99904307e-03, 1.15461109e-02, 0.00000000e+00, 0.00000000e+00, 0.00000000e+00, -2.97855075e-03, 1.15461109e-02, -3.99904307e-03, 0.00000000e+00, -3.46354119e-01, 0.00000000e+00, 0.00000000e+00, -4.60585955e+04, 4.42347187e+04, 0.00000000e+00, -2.02971528e+00, 7.53943458e-01, 5.25620811e-01, 3.65908622e+00, 0.00000000e+00, 0.7530298613, 7.9652629583, -2.8833312284, 3.4698584684, 3.0000000000, 2.2975832759, 0.2291242321
         200, -3.83790885e-03, 1.11148807e-02, 0.00000000e+00, 0.00000000e+00, 0.00000000e+00, -2.82337561e-03, 1.11148807e-02, -3.83790885e-03, 0.00000000e+00, -3.45294650e-01, 0.00000000e+00, 0.00000000e+00, -3.98299311e+04, 3.93985986e+04, 0.00000000e+00, -2.15482926e+00, 6.27696546e-01, 3.90901052e-01, 3.52692374e+00, 0.00000000e+00, 0.7060690428, 7.9193167733, -3.0830178760, 3.5022784794, 3.0000000000, 2.6452028592, 0.2411329428
         210, -3.65712509e-03, 1.06594220e-02, 0.00000000e+00, 0.00000000e+00, 0.00000000e+00, -2.60142646e-03, 1.06594220e-02, -3.65712509e-03, 0.00000000e+00, -3.43088499e-01, 0.00000000e+00, 0.00000000e+00, -3.39475668e+04, 3.48086488e+04, 0.00000000e+00, -2.29659644e+00, 4.92238447e-01, 2.37905525e-01, 3.38110768e+00, 0.00000000e+00, 0.6571380145, 7.8195323969, -3.3414503655, 3.4725029363, 3.0000000000, 3.1071183958, 0.2530613065
         220, -3.54297933e-03, 1.01796798e-02, 0.00000000e+00, 0.00000000e+00, 0.00000000e+00, -2.39731664e-03, 1.01796798e-02, -3.54297933e-03, 0.00000000e+00, -3.48044281e-01, 0.00000000e+00, 0.00000000e+00, -2.78428538e+04, 3.01253163e+04, 0.00000000e+00, -2.44504022e+00, 3.58396575e-01, 7.67827004e-02, 3.23191214e+00, 0.00000000e+00, 0.5718302997, 7.7026283769, -3.6871407959, 4.8727642681, 4.0000000000, 3.6881948456, 0.2652245204
         230, -3.74127375e-03, 9.68947014e-03, 0.00000000e+00, 0.00000000e+00, 0.00000000e+00, -2.60637813e-03, 9.68947014e-03, -3.74127375e-03, 0.00000000e+00, -3.86117475e-01, 0.00000000e+00, 0.00000000e+00, -2.05412885e+04, 2.51654196e+04, 0.00000000e+00, -2.59461109e+00, 2.30223146e-01, -8.58034435e-02, 3.08318728e+00, 0.00000000e+00, 0.5254511785, 7.5868943737, -3.9559785102, 3.4798513024, 4.0000000000, 4.3766001456, 0.2776879867
         240, -4.18158314e-03, 9.18272492e-03, 0.00000000e+00, 0.00000000e+00, 0.00000000e+00, -3.21061924e-03, 9.18272492e-03, -4.18158314e-03, 0.00000000e+00, -4.55374976e-01, 0.00000000e+00, 0.00000000e+00, -1.31019484e+04, 1.96717715e+04, 0.00000000e+00, -2.75445908e+00, 1.09247866e-01, -2.70536179e-01, 2.92321985e+00, 0.00000000e+00, 0.4080889368, 7.4733962887, -4.0135901443, 3.5522449744, 5.0000000000, 5.2479642615, 0.2901795427
         250, -4.34996997e-03, 8.62771621e-03, 0.00000000e+00, 0.00000000e+00, 0.00000000e+00, -3.36717285e-03, 8.62771621e-03, -4.34996997e-03, 0.00000000e+00, -5.04185565e-01, 0.00000000e+00, 0.00000000e+00, -7.33782093e+03, 1.57716884e+04, 0.00000000e+00, -2.94568407e+00, 2.60718829e-03, -5.35049218e-01, 2.74160210e+00, 0.00000000e+00, 0.1206193891, 7.3576714778, -4.0292981611, 4.9763778723, 5.0000000000, 6.5290801300, 0.3032323837
         260, -4.39851977e-03, 8.03763123e-03, 0.00000000e+00, 0.00000000e+00, 0.00000000e+00, -3.15620817e-03, 8.03763123e-03, -4.39851977e-03, 0.00000000e+00, -5.47240803e-01, 0.00000000e+00, 0.00000000e+00, -2.93652980e+03, 1.30453279e+04, 0.00000000e+00, -3.10778199e+00, -7.89582079e-02, -8.08896640e-01, 2.60406712e+00, 0.00000000e+00, -1.1664538604, 7.2354909641, -4.0446340130, 5.4538518938, 5.0000000000, 7.9302889571, 0.3167147477
         270, -4.42020465e-03, 7.45952431e-03, 0.00000000e+00, 0.00000000e+00, 0.00000000e+00, -3.13980821e-03, 7.45952431e-03, -4.42020465e-03, 0.00000000e+00, -5.92558516e-01, 0.00000000e+00, 0.00000000e+00, 5.38501169e+02, 1.08401856e+04, 0.00000000e+00, -3.20152075e+00, -1.35401534e-01, -9.80458907e-01, 2.52664725e+00, 0.00000000e+00, -3.4546510182, 7.1145359455, -4.0615840602, 3.3766489826, 6.0000000000, 8.8831481852, 0.3302940051
         280, -4.18338804e-03, 6.92049895e-03, 0.00000000e+00, 0.00000000e+00, 0.00000000e+00, -3.06917959e-03, 6.92049895e-03, -4.18338804e-03, 0.00000000e+00, -6.04492258e-01, 0.00000000e+00, 0.00000000e+00, 2.28213887e+03, 9.16090427e+03, 0.00000000e+00, -3.27180605e+00, -1.73180764e-01, -1.18519743e+00, 2.47270044e+00, 0.00000000e+00, -3.6599168195, 7.0023543619, -4.0767582243, 3.2820911358, 6.0000000000, 9.6225173666, 0.3436741114
         290, -3.79838244e-03, 6.42662337e-03, 0.00000000e+00, 0.00000000e+00, 0.00000000e+00, -2.89637577e-03, 6.42662337e-03, -3.79838244e-03, 0.00000000e+00, -5.91038594e-01, 0.00000000e+00, 0.00000000e+00, 3.39515391e+03, 7.89637836e+03, 0.00000000e+00, -3.32301413e+00, -2.11450710e-01, -1.54916575e+00, 2.42977204e+00, 0.00000000e+00, -3.8119678581, 6.8971621648, -4.0929770496, 3.2026295081, 5.0000000000, 10.2865176808, 0.3560520728
         300, -3.35266529e-03, 5.98743631e-03, 0.00000000e+00, 0.00000000e+00, 0.00000000e+00, -2.61848148e-03, 5.98743631e-03, -3.35266529e-03, 0.00000000e+00, -5.59950054e-01, 0.00000000e+00, 0.00000000e+00, 4.24386279e+03, 6.99448964e+03, 0.00000000e+00, -3.34332890e+00, -2.39447042e-01, -1.46274837e+00, 2.40873298e+00, 0.00000000e+00, -3.8985007066, 6.8008492491, -4.1076076372, 3.1196128797, 6.0000000000, 10.5097876321, 0.3685526927
         310, -2.95430279e-03, 5.60019764e-03, 0.00000000e+00, 0.00000000e+00, 0.00000000e+00, -2.23363627e-03, 5.60019764e-03, -2.95430279e-03, 0.00000000e+00, -5.27535452e-01, 0.00000000e+00, 0.00000000e+00, 5.20577310e+03, 6.46504825e+03, 0.00000000e+00, -3.38554001e+00, -2.80965993e-01, -1.41324033e+00, 2.36289026e+00, 0.00000000e+00, -3.9376823097, 6.7121120377, -4.1209131846, 3.0550717282, 6.0000000000, 10.9775585192, 0.3853781382
         320, -2.72926972e-03, 5.25183192e-03, 0.00000000e+00, 0.00000000e+00, 0.00000000e+00, -2.01824371e-03, 5.25183192e-03, -2.72926972e-03, 0.00000000e+00, -5.19679564e-01, 0.00000000e+00, 0.00000000e+00, 6.73215263e+03, 6.64092043e+03, 0.00000000e+00, -3.43480414e+00, -3.27891613e-01, -1.45492181e+00, 2.30998052e+00, 0.00000000e+00, -3.8930521004, 6.6279139990, -4.1318314294, 3.0196530170, 6.0000000000, 11.6222181488, 0.4030798197
         330, -2.56535813e-03, 4.93288817e-03, 0.00000000e+00, 0.00000000e+00, 0.00000000e+00, -1.92275763e-03, 4.93288817e-03, -2.56535813e-03, 0.00000000e+00, -5.20051955e-01, 0.00000000e+00, 0.00000000e+00, 8.07877230e+03, 7.28701039e+03, 0.00000000e+00, -3.48261626e+00, -3.65883517e-01, -1.67099997e+00, 2.26474469e+00, 0.00000000e+00, -3.9527850006, 6.5477723197, -4.1423587608, 2.9617939127, 6.0000000000, 12.3199296415, 0.4184212049
         340, -2.38040581e-03, 4.64144391e-03, 0.00000000e+00, 0.00000000e+00, 0.00000000e+00, -1.80738566e-03, 4.64144391e-03, -2.38040581e-03, 0.00000000e+00, -5.12858899e-01, 0.00000000e+00, 0.00000000e+00, 8.88388980e+03, 7.95789799e+03, 0.00000000e+00, -3.51208828e+00, -3.94152621e-01, -1.83890321e+00, 2.23748732e+00, 0.00000000e+00, -3.8859373567, 6.4714061202, -4.1492440888, 2.9318653280, 6.0000000000, 12.7679351381, 0.4307439049
         350, -2.17931995e-03, 4.37617179e-03, 0.00000000e+00, 0.00000000e+00, 0.00000000e+00, -1.64247063e-03, 4.37617179e-03, -2.17931995e-03, 0.00000000e+00, -4.97996892e-01, 0.00000000e+00, 0.00000000e+00, 9.36568883e+03, 8.47829113e+03, 0.00000000e+00, -3.54144152e+00, -4.25385274e-01, -1.82163346e+00, 2.20709460e+00, 0.00000000e+00, -3.9608002385, 6.3985171394, -4.1549953124, 2.8667883889, 6.0000000000, 13.2223932067, 0.4431743701
         360, -2.02180371e-03, 4.13419769e-03, 0.00000000e+00, 0.00000000e+00, 0.00000000e+00, -1.51332983e-03, 4.13419769e-03, -2.02180371e-03, 0.00000000e+00, -4.89043792e-01, 0.00000000e+00, 0.00000000e+00, 9.89661305e+03, 8.97780466e+03, 0.00000000e+00, -3.57482656e+00, -4.57913080e-01, -1.87434270e+00, 2.17382051e+00, 0.00000000e+00, -3.9781206003, 6.3285283290, -4.1578689600, 3.5744145311, 6.0000000000, 13.7491879246, 0.4553804636
         370, -1.88546742e-03, 3.91170906e-03, 0.00000000e+00, 0.00000000e+00, 0.00000000e+00, -1.41150617e-03, 3.91170906e-03, -1.88546742e-03, 0.00000000e+00, -4.82006047e-01, 0.00000000e+00, 0.00000000e+00, 1.03303148e+04, 9.38776037e+03, 0.00000000e+00, -3.60608004e+00, -4.87968093e-01, -1.93112862e+00, 2.14316962e+00, 0.00000000e+00, -3.9692643840, 6.2609296910, -4.1638519071, 2.7835819350, 6.0000000000, 14.2401500555, 0.4677888910
         380, -1.76153791e-03, 3.70730156e-03, 0.00000000e+00, 0.00000000e+00, 0.00000000e+00, -1.31622243e-03, 3.70730156e-03, -1.76153791e-03, 0.00000000e+00, -4.75153663e-01, 0.00000000e+00, 0.00000000e+00, 1.06404317e+04, 9.75575797e+03, 0.00000000e+00, -3.63503794e+00, -5.16070406e-01, -2.01301369e+00, 2.11421350e+00, 0.00000000e+00, -3.9958829868, 6.1956981359, -4.1886211943, 3.3803651680, 6.0000000000, 14.7381962592, 0.4800750573
         390, -1.64949995e-03, 3.51908093e-03, 0.00000000e+00, 0.00000000e+00, 0.00000000e+00, -1.22824062e-03, 3.51908093e-03, -1.64949995e-03, 0.00000000e+00, -4.68730326e-01, 0.00000000e+00, 0.00000000e+00, 1.08190987e+04, 1.01095568e+04, 0.00000000e+00, -3.66530687e+00, -5.44336802e-01, -2.05886613e+00, 2.08420290e+00, 0.00000000e+00, -4.0622147177, 6.1324766582, -4.2592641885, 2.7096858572, 6.0000000000, 15.2038513016, 0.4978504539
         400, -1.57286160e-03, 3.34554211e-03, 0.00000000e+00, 0.00000000e+00, 0.00000000e+00, -1.16803504e-03, 3.34554211e-03, -1.57286160e-03, 0.00000000e+00, -4.70136541e-01, 0.00000000e+00, 0.00000000e+00, 1.09741058e+04, 1.06246769e+04, 0.00000000e+00, -3.69568219e+00, -5.71545959e-01, -2.13982397e+00, 2.05433616e+00, 0.00000000e+00, -4.0769924602, 6.0711462111, -4.3950344261, 2.6900203750, 6.0000000000, 15.7084502934, 0.5163601478
         410, -1.48577883e-03, 3.18488716e-03, 0.00000000e+00, 0.00000000e+00, 0.00000000e+00, -1.09971128e-03, 3.18488716e-03, -1.48577883e-03, 0.00000000e+00, -4.66509095e-01, 0.00000000e+00, 0.00000000e+00, 1.10963271e+04, 1.13694038e+04, 0.00000000e+00, -3.72396700e+00, -5.97731536e-01, -2.19269118e+00, 2.02631244e+00, 0.00000000e+00, -4.3591617942, 6.0114553949, -4.5832748908, 2.6321624803, 6.0000000000, 16.1719786521, 0.5295554519
         420, -1.42086798e-03, 3.03640776e-03, 0.00000000e+00, 0.00000000e+00, 0.00000000e+00, -1.04839934e-03, 3.03640776e-03, -1.42086798e-03, 0.00000000e+00, -4.67943731e-01, 0.00000000e+00, 0.00000000e+00, 1.11169935e+04, 1.22772063e+04, 0.00000000e+00, -3.74793059e+00, -6.22067667e-01, -2.18883723e+00, 2.00241326e+00, 0.00000000e+00, -4.2946798324, 5.9533338303, -4.7633612329, 2.6029419238, 6.0000000000, 16.5607022466, 0.5420878927
         430, -1.35891585e-03, 2.89890253e-03, 0.00000000e+00, 0.00000000e+00, 0.00000000e+00, -9.99250862e-04, 2.89890253e-03, -1.35891585e-03, 0.00000000e+00, -4.68769072e-01, 0.00000000e+00, 0.00000000e+00, 1.11148895e+04, 1.32483271e+04, 0.00000000e+00, -3.77406070e+00, -6.46820950e-01, -2.15206982e+00, 1.97631593e+00, 0.00000000e+00, -4.6266749724, 5.8967614211, -4.8937598439, 2.5476423816, 6.0000000000, 16.8587046847, 0.5547464530
         440, -1.30591655e-03, 2.77130432e-03, 0.00000000e+00, 0.00000000e+00, 0.00000000e+00, -9.57005791e-04, 2.77130432e-03, -1.30591655e-03, 0.00000000e+00, -4.71228131e-01, 0.00000000e+00, 0.00000000e+00, 1.10850230e+04, 1.41804915e+04, 0.00000000e+00, -3.78822248e+00, -6.67770061e-01, -2.05907125e+00, 1.96240106e+00, 0.00000000e+00, -4.4998752456, 5.8415602497, -4.9824483233, 2.5218374272, 6.0000000000, 17.1332181160, 0.5675053835
         450, -1.25410476e-03, 2.65228752e-03, 0.00000000e+00, 0.00000000e+00, 0.00000000e+00, -9.15502475e-04, 2.65228752e-03, -1.25410476e-03, 0.00000000e+00, -4.72838920e-01, 0.00000000e+00, 0.00000000e+00, 1.10032723e+04, 1.50172561e+04, 0.00000000e+00, -3.80669498e+00, -6.89509216e-01, -2.18674660e+00, 1.94333187e+00, 0.00000000e+00, -4.2430218932, 5.7875610791, -5.0512051405, 2.6131695191, 6.0000000000, 17.4792073503, 0.5803605795
         460, -1.20607465e-03, 2.54186003e-03, 0.00000000e+00, 0.00000000e+00, 0.00000000e+00, -8.77007279e-04, 2.54186003e-03, -1.20607465e-03, 0.00000000e+00, -4.74485078e-01, 0.00000000e+00, 0.00000000e+00, 1.09108669e+04, 1.57398117e+04, 0.00000000e+00, -3.83937549e+00, -7.13382465e-01, -2.36674193e+00, 1.91126154e+00, 0.00000000e+00, -4.6727233613, 5.7350212805, -5.1118617999, 2.4548938145, 6.0000000000, 18.0278969707, 0.5930774053
         470, -1.16646509e-03, 2.43887668e-03, 0.00000000e+00, 0.00000000e+00, 0.00000000e+00, -8.44942432e-04, 2.43887668e-03, -1.16646509e-03, 0.00000000e+00, -4.78279651e-01, 0.00000000e+00, 0.00000000e+00, 1.08037327e+04, 1.63516862e+04, 0.00000000e+00, -3.86261635e+00, -7.34378895e-01, -2.36783293e+00, 1.88833775e+00, 0.00000000e+00, -4.4513880568, 5.6835806371, -5.1615157184, 2.4971155911, 6.0000000000, 18.4165583905, 0.6060377757
         480, -1.12432009e-03, 2.34252029e-03, 0.00000000e+00, 0.00000000e+00, 0.00000000e+00, -8.10835432e-04, 2.34252029e-03, -1.12432009e-03, 0.00000000e+00, -4.79961729e-01, 0.00000000e+00, 0.00000000e+00, 1.06891565e+04, 1.68574758e+04, 0.00000000e+00, -3.88060808e+00, -7.54726794e-01, -2.24680815e+00, 1.87013701e+00, 0.00000000e+00, -4.2200222090, 5.6330745684, -5.2074045072, 2.3794785216, 6.0000000000, 18.5510107983, 0.6189741532
         490, -1.07897646e-03, 2.25199746e-03, 0.00000000e+00, 0.00000000e+00, 0.00000000e+00, -7.74291838e-04, 2.25199746e-03, -1.07897646e-03, 0.00000000e+00, -4.79119750e-01, 0.00000000e+00, 0.00000000e+00, 1.05599923e+04, 1.72656680e+04, 0.00000000e+00, -3.89408196e+00, -7.73212936e-01, -2.27713733e+00, 1.85631177e+00, 0.00000000e+00, -4.5978648955, 5.5834386630, -5.2518132773, 2.3533663132, 6.0000000000, 18.8837558149, 0.6319978515
         500, -1.03309795e-03, 2.16733241e-03, 0.00000000e+00, 0.00000000e+00, 0.00000000e+00, -7.37196106e-04, 2.16733241e-03, -1.03309795e-03, 0.00000000e+00, -4.76667976e-01, 0.00000000e+00, 0.00000000e+00, 1.04169054e+04, 1.75859315e+04, 0.00000000e+00, -3.92393127e+00, -7.94100597e-01, -2.47111163e+00, 1.82734376e+00, 0.00000000e+00, -4.4655184513, 5.5349616332, -5.2916672484, 2.3360918851, 6.0000000000, 19.4612126018, 0.6448744297
         510, -9.87876493e-04, 2.08808798e-03, 0.00000000e+00, 0.00000000e+00, 0.00000000e+00, -7.00816019e-04, 2.08808798e-03, -9.87876493e-04, 0.00000000e+00, -4.73100992e-01, 0.00000000e+00, 0.00000000e+00, 1.02607092e+04, 1.78295059e+04, 0.00000000e+00, -3.94302800e+00, -8.13249349e-01, -2.36200335e+00, 1.80814382e+00, 0.00000000e+00, -4.2049201863, 5.4874048276, -5.3288237647, 2.3232228638, 6.0000000000, 19.6059906229, 0.6578146180
         520, -9.49004533e-04, 2.01321100e-03, 0.00000000e+00, 0.00000000e+00, 0.00000000e+00, -6.69235006e-04, 2.01321100e-03, -9.49004533e-04, 0.00000000e+00, -4.71388509e-01, 0.00000000e+00, 0.00000000e+00, 1.01009492e+04, 1.80070912e+04, 0.00000000e+00, -3.95122163e+00, -8.29480468e-01, -2.30182686e+00, 1.79939545e+00, 0.00000000e+00, -4.0515691558, 5.4404435455, -5.3634750260, 2.2995375344, 6.0000000000, 19.7642169077, 0.6708725532
         530, -9.12598120e-04, 1.94288151e-03, 0.00000000e+00, 0.00000000e+00, 0.00000000e+00, -6.39346588e-04, 1.94288151e-03, -9.12598120e-04, 0.00000000e+00, -4.69713729e-01, 0.00000000e+00, 0.00000000e+00, 9.93508604e+03, 1.81259720e+04, 0.00000000e+00, -3.97883070e+00, -8.48617467e-01, -2.53087568e+00, 1.77270856e+00, 0.00000000e+00, -4.2503845855, 5.3945322027, -5.4039338919, 2.2416920897, 6.0000000000, 20.3780127192, 0.6840448737
         540, -8.79914596e-04, 1.87655051e-03, 0.00000000e+00, 0.00000000e+00, 0.00000000e+00, -6.12423061e-04, 1.87655051e-03, -8.79914596e-04, 0.00000000e+00, -4.68900032e-01, 0.00000000e+00, 0.00000000e+00, 9.77202853e+03, 1.81940103e+04, 0.00000000e+00, -3.99471488e+00, -8.66192724e-01, -2.39910713e+00, 1.75652307e+00, 0.00000000e+00, -4.1362329689, 5.3492408144, -5.4413133430, 2.2295113164, 6.0000000000, 20.5356827920, 0.6970919927
         550, -8.49187698e-04, 1.81341939e-03, 0.00000000e+00, 0.00000000e+00, 0.00000000e+00, -5.86926077e-04, 1.81341939e-03, -8.49187698e-04, 0.00000000e+00, -4.68279816e-01, 0.00000000e+00, 0.00000000e+00, 9.60296193e+03, 1.82166751e+04, 0.00000000e+00, -4.00620800e+00, -8.81982301e-01, -2.50586505e+00, 1.74482915e+00, 0.00000000e+00, -3.9639025560, 5.3043458390, -5.4758748515, 2.1987525755, 6.0000000000, 20.8739829042, 0.7100956321
         560, -8.22162212e-04, 1.75432083e-03, 0.00000000e+00, 0.00000000e+00, 0.00000000e+00, -5.64157407e-04, 1.75432083e-03, -8.22162212e-04, 0.00000000e+00, -4.68649859e-01, 0.00000000e+00, 0.00000000e+00, 9.43948136e+03, 1.82000756e+04, 0.00000000e+00, -4.02932508e+00, -8.99175704e-01, -2.51241230e+00, 1.72261532e+00, 0.00000000e+00, -3.8036451561, 5.2605942412, -5.5100214087, 2.1948256110, 6.0000000000, 21.2380626517, 0.7231800636
         570, -7.95627345e-04, 1.69798671e-03, 0.00000000e+00, 0.00000000e+00, 0.00000000e+00, -5.41780276e-04, 1.69798671e-03, -7.95627345e-04, 0.00000000e+00, -4.68571009e-01, 0.00000000e+00, 0.00000000e+00, 9.26759893e+03, 1.81492489e+04, 0.00000000e+00, -4.03956998e+00, -9.14951194e-01, -2.45646574e+00, 1.71155791e+00, 0.00000000e+00, -3.6626072471, 5.2171416380, -5.5378950050, 2.1363470934, 6.0000000000, 21.3821411477, 0.7361869613
         580, -7.69925165e-04, 1.64445446e-03, 0.00000000e+00, 0.00000000e+00, 0.00000000e+00, -5.19866256e-04, 1.64445446e-03, -7.69925165e-04, 0.00000000e+00, -4.68194883e-01, 0.00000000e+00, 0.00000000e+00, 9.10275506e+03, 1.80716116e+04, 0.00000000e+00, -4.06516320e+00, -9.32303525e-01, -2.78441388e+00, 1.68673745e+00, 0.00000000e+00, -3.4971113025, 5.1743072815, -5.5108763189, 2.3495126251, 6.0000000000, 22.0580522746, 0.7493268172
         590, -7.48573171e-04, 1.59393252e-03, 0.00000000e+00, 0.00000000e+00, 0.00000000e+00, -5.01568374e-04, 1.59393252e-03, -7.48573171e-04, 0.00000000e+00, -4.69639186e-01, 0.00000000e+00, 0.00000000e+00, 8.93916703e+03, 1.79758472e+04, 0.00000000e+00, -4.07319993e+00, -9.46116945e-01, -2.42366473e+00, 1.67848791e+00, 0.00000000e+00, -3.3904144904, 5.1321378474, -5.4261905287, 2.1820438119, 6.0000000000, 22.0599961023, 0.7627429525
         600, -7.27545976e-04, 1.54562537e-03, 0.00000000e+00, 0.00000000e+00, 0.00000000e+00, -4.83065602e-04, 1.54562537e-03, -7.27545976e-04, 0.00000000e+00, -4.70713013e-01, 0.00000000e+00, 0.00000000e+00, 8.76861948e+03, 1.78679472e+04, 0.00000000e+00, -4.09394784e+00, -9.62438791e-01, -2.74622085e+00, 1.65812877e+00, 0.00000000e+00, -3.2254637978, 5.0903900399, -5.2601032187, 2.0799360676, 6.0000000000, 22.6601013825, 0.7759414037
         610, -7.09243826e-04, 1.49993894e-03, 0.00000000e+00, 0.00000000e+00, 0.00000000e+00, -4.66936235e-04, 1.49993894e-03, -7.09243826e-04, 0.00000000e+00, -4.72848464e-01, 0.00000000e+00, 0.00000000e+00, 8.61087920e+03, 1.77563507e+04, 0.00000000e+00, -4.10932423e+00, -9.77635581e-01, -2.54585320e+00, 1.64270662e+00, 0.00000000e+00, -3.0352253419, 5.0493106564, -5.0465126916, 2.0787166781, 6.0000000000, 22.8050280284, 0.7889756560
         620, -6.90669492e-04, 1.45596872e-03, 0.00000000e+00, 0.00000000e+00, 0.00000000e+00, -4.50409628e-04, 1.45596872e-03, -6.90669492e-04, 0.00000000e+00, -4.74371106e-01, 0.00000000e+00, 0.00000000e+00, 8.44512611e+03, 1.76453496e+04, 0.00000000e+00, -4.11934833e+00, -9.91244729e-01, -2.71269205e+00, 1.63254481e+00, 0.00000000e+00, -2.8227952611, 5.0083377601, -4.8039432700, 2.1081874357, 6.0000000000, 23.1633942146, 0.8024619341
         630, -6.74973105e-04, 1.41470573e-03, 0.00000000e+00, 0.00000000e+00, 0.00000000e+00, -4.36093709e-04, 1.41470573e-03, -6.74973105e-04, 0.00000000e+00, -4.77112017e-01, 0.00000000e+00, 0.00000000e+00, 8.29027334e+03, 1.75437854e+04, 0.00000000e+00, -4.13385387e+00, -1.00509636e+00, -2.66885414e+00, 1.61845433e+00, 0.00000000e+00, -2.5957663852, 4.9684462515, -4.5441372969, 2.1711112637, 6.0000000000, 23.2982816342, 0.8158766190
         640, -6.58226801e-04, 1.37489510e-03, 0.00000000e+00, 0.00000000e+00, 0.00000000e+00, -4.20820350e-04, 1.37489510e-03, -6.58226801e-04, 0.00000000e+00, -4.78746924e-01, 0.00000000e+00, 0.00000000e+00, 8.12365199e+03, 1.74529981e+04, 0.00000000e+00, -4.14808028e+00, -1.01956059e+00, -2.67579919e+00, 1.60410021e+00, 0.00000000e+00, -2.3519001964, 4.9286363358, -4.2600414188, 2.3375621519, 6.0000000000, 23.7414798678, 0.8296193719
         650, -6.44380443e-04, 1.33724647e-03, 0.00000000e+00, 0.00000000e+00, 0.00000000e+00, -4.07938375e-04, 1.33724647e-03, -6.44380443e-04, 0.00000000e+00, -4.81871110e-01, 0.00000000e+00, 0.00000000e+00, 7.97142510e+03, 1.73782653e+04, 0.00000000e+00, -4.16864381e+00, -1.03458621e+00, -2.72305649e+00, 1.58387541e+00, 0.00000000e+00, -2.0950139672, 4.8896304320, -3.9508393963, 2.5026765381, 7.0000000000, 24.0414742840, 0.8434784770
         660, -6.30283617e-04, 1.30086239e-03, 0.00000000e+00, 0.00000000e+00, 0.00000000e+00, -3.94750257e-04, 1.30086239e-03, -6.30283617e-04, 0.00000000e+00, -4.84512139e-01, 0.00000000e+00, 0.00000000e+00, 7.81833165e+03, 1.73199562e+04, 0.00000000e+00, -4.17541727e+00, -1.04686350e+00, -2.76164506e+00, 1.57678108e+00, 0.00000000e+00, -1.8214575836, 4.8505948381, -3.6035670323, 2.4709785439, 6.0000000000, 24.2325872595, 0.8576871951