TITLE = "SU2 Simulation"
VARIABLES = "Iteration","CL","CD","CSF","CMx","CMy","CMz","CFx","CFy","CFz","CL/CD","AoA","Custom_ObjFunc","HeatFlux_Total","HeatFlux_Maximum","Temperature_Total","Res_Flow[0]","Res_Flow[1]","Res_Flow[2]","Res_Flow[3]","Res_Flow[4]"," Res_Turb[0]"," Res_Turb[1]"," Res_Turb[2]"," Res_Turb[3]","Linear_Solver_Iterations","CFL_Number","Time(min)"
ZONE T= "Convergence history"
           0, 4.45736025e-02, 9.65901157e-02, 0.00000000e+00, 0.00000000e+00, 0.00000000e+00, 1.85221895e-02, 9.47150323e-02, 4.84305599e-02, 0.00000000e+00, 4.61471676e-01, 2.31000000e+00, 0.00000000e+00, -2.23438679e+05, 2.16504806e+05, 0.00000000e+00, -1.70011403e+00, -1.08248207e+01, -1.11219562e+01, 3.80541079e+00, 0.00000000e+00, 3.5603182416, 4.2821805152, -0.1441299865, 7.8123758284, 9.0000000000, 10.0000000000, 0.0019312143
          10, 1.89624822e-01, 1.35463791e-01, 0.00000000e+00, 0.00000000e+00, 0.00000000e+00, 8.18660845e-02, 1.27710657e-01, 1.94930757e-01, 0.00000000e+00, 1.39981924e+00, 2.31000000e+00, 0.00000000e+00, -2.59682017e+04, 4.38119429e+04, 0.00000000e+00, -2.29932047e+00, 1.37419409e-01, 1.95248296e-01, 3.15009299e+00, 0.00000000e+00, 1.4094600487, 6.7458288133, 0.7431621058, 5.2164862765, 24.0000000000, 19.1705804032, 0.0169127464
          20, 2.06390786e-01, 1.06686931e-01, 0.00000000e+00, 0.00000000e+00, 0.00000000e+00, 9.46924709e-02, 9.82814095e-02, 2.10523211e-01, 0.00000000e+00, 1.93454610e+00, 2.31000000e+00, 0.00000000e+00, -9.83659657e+03, 2.57246857e+04, 0.00000000e+00, -2.15357710e+00, 2.59413987e-01, 1.75323006e-01, 3.27568564e+00, 0.00000000e+00, 0.5892585734, 6.1521564095, -0.7405735949, 4.7925260241, 18.0000000000, 11.7550215438, 0.0313260476
          30, 2.47794872e-01, 1.05397151e-01, 0.00000000e+00, 0.00000000e+00, 0.00000000e+00, 1.10393014e-01, 9.53238370e-02, 2.51841665e-01, 0.00000000e+00, 2.35105854e+00, 2.31000000e+00, 0.00000000e+00, -5.73013682e+03, 1.95434932e+04, 0.00000000e+00, -2.07095776e+00, 3.73384846e-01, 2.50017453e-01, 3.35219121e+00, 0.00000000e+00, 0.3755759722, 5.8818741449, -0.9236835179, 4.5160721441, 17.0000000000, 10.0100000000, 0.0447637002
          40, 3.22823093e-01, 8.76806013e-02, 0.00000000e+00, 0.00000000e+00, 0.00000000e+00, 1.40529021e-01, 7.45975829e-02, 3.26094829e-01, 0.00000000e+00, 3.68180747e+00, 2.31000000e+00, 0.00000000e+00, -3.66865614e+03, 1.40804503e+04, 0.00000000e+00, -2.01805758e+00, 3.53908419e-01, 2.47786458e-01, 3.38878707e+00, 0.00000000e+00, 0.1969341692, 5.6715656960, -0.9934271717, 4.3895716043, 16.0000000000, 10.0100000000, 0.0581395666
          50, 3.85278832e-01, 6.84901441e-02, 0.00000000e+00, 0.00000000e+00, 0.00000000e+00, 1.61461102e-01, 5.29053678e-02, 3.87726321e-01, 0.00000000e+00, 5.62531788e+00, 2.31000000e+00, 0.00000000e+00, -2.45015747e+03, 1.14469167e+04, 0.00000000e+00, -1.98622726e+00, 2.97224945e-01, 2.00147580e-01, 3.41059591e+00, 0.00000000e+00, 0.0323400583, 5.4706343036, -1.1379623823, 4.2660321684, 16.0000000000, 10.0100000000, 0.0718515317
          60, 4.35476522e-01, 5.34215358e-02, 0.00000000e+00, 0.00000000e+00, 0.00000000e+00, 1.68147450e-01, 3.58257272e-02, 4.37275862e-01, 0.00000000e+00, 8.15170354e+00, 2.31000000e+00, 0.00000000e+00, -1.88550790e+03, 9.91703823e+03, 0.00000000e+00, -1.96749656e+00, 2.54339126e-01, 1.67112121e-01, 3.42553862e+00, 0.00000000e+00, -0.1249081978, 5.2867515978, -1.2322977917, 4.3769295480, 16.0000000000, 10.0100000000, 0.0855813503
          70, 4.93441271e-01, 4.01953326e-02, 0.00000000e+00, 0.00000000e+00, 0.00000000e+00, 1.71366464e-01, 2.02739341e-02, 4.94660409e-01, 0.00000000e+00, 1.22760838e+01, 2.31000000e+00, 0.00000000e+00, -1.82621050e+03, 9.25075880e+03, 0.00000000e+00, -1.93744358e+00, 3.50137737e-01, 1.98515925e-01, 3.46153457e+00, 0.00000000e+00, -0.2763793231, 5.1100505306, -1.3227373383, 5.5682943247, 16.0000000000, 10.0100000000, 0.0992389798
          80, 5.37021289e-01, 3.12722489e-02, 0.00000000e+00, 0.00000000e+00, 0.00000000e+00, 1.67677242e-01, 9.60155731e-03, 5.37845357e-01, 0.00000000e+00, 1.71724551e+01, 2.31000000e+00, 0.00000000e+00, -1.74656331e+03, 9.14710129e+03, 0.00000000e+00, -1.90887752e+00, 3.65683045e-01, 2.51173243e-01, 3.48547158e+00, 0.00000000e+00, -0.0268353823, 4.9387258046, -1.2759473268, 5.6800142870, 16.0000000000, 10.0100000000, 0.1129112164
          90, 5.70857870e-01, 2.54766253e-02, 0.00000000e+00, 0.00000000e+00, 0.00000000e+00, 1.63989592e-01, 2.44681990e-03, 5.71420843e-01, 0.00000000e+00, 2.24071227e+01, 2.31000000e+00, 0.00000000e+00, -1.41981618e+03, 8.98030728e+03, 0.00000000e+00, -1.86759538e+00, 3.47926917e-01, 2.65393387e-01, 3.52622607e+00, 0.00000000e+00, -0.2143434615, 4.8013470967, -1.3188828735, 5.2140619822, 16.0000000000, 10.0100000000, 0.1265815139
         100, 6.13601736e-01, 2.04162491e-02, 0.00000000e+00, 0.00000000e+00, 0.00000000e+00, 1.62672825e-01, -4.33228630e-03, 6.13926009e-01, 0.00000000e+00, 3.00545773e+01, 2.31000000e+00, 0.00000000e+00, -1.23613749e+03, 8.99228406e+03, 0.00000000e+00, -1.83169851e+00, 3.50481620e-01, 3.07061623e-01, 3.56184338e+00, 0.00000000e+00, 0.6283690760, 4.6796094888, -0.5712970772, 6.3602959607, 16.0000000000, 10.0100000000, 0.1399619142
         110, 6.56664702e-01, 1.81480864e-02, 0.00000000e+00, 0.00000000e+00, 0.00000000e+00, 1.56297901e-01, -8.33430963e-03, 6.56862560e-01, 0.00000000e+00, 3.61836883e+01, 2.31000000e+00, 0.00000000e+00, -1.29493690e+03, 9.36870725e+03, 0.00000000e+00, -1.80016397e+00, 3.43029290e-01, 3.75581181e-01, 3.59188608e+00, 0.00000000e+00, 0.6087349548, 4.5318140009, -1.1323934900, 6.1768759671, 16.0000000000, 10.0100000000, 0.1537444989
         120, 6.87125052e-01, 1.86546947e-02, 0.00000000e+00, 0.00000000e+00, 0.00000000e+00, 1.43460803e-01, -9.05585348e-03, 6.87318577e-01, 0.00000000e+00, 3.68338942e+01, 2.31000000e+00, 0.00000000e+00, -1.45010192e+03, 9.80047190e+03, 0.00000000e+00, -1.77020808e+00, 3.55714222e-01, 4.12704807e-01, 3.61924676e+00, 0.00000000e+00, 1.6551861919, 4.4467960681, -0.4014575134, 7.2707538939, 16.0000000000, 10.0100000000, 0.1676776965
         130, 7.05347330e-01, 2.02374872e-02, 0.00000000e+00, 0.00000000e+00, 0.00000000e+00, 1.29028553e-01, -8.20881772e-03, 7.05589843e-01, 0.00000000e+00, 3.48535035e+01, 2.31000000e+00, 0.00000000e+00, -1.51003236e+03, 1.00458279e+04, 0.00000000e+00, -1.74971123e+00, 4.34058864e-01, 4.67279154e-01, 3.63776177e+00, 0.00000000e+00, 0.4273628027, 4.4982458971, -1.4220730111, 6.0854921520, 16.0000000000, 10.0100000000, 0.1807784478
         140, 7.13794046e-01, 2.23176510e-02, 0.00000000e+00, 0.00000000e+00, 0.00000000e+00, 1.15274718e-01, -6.47079918e-03, 7.14113539e-01, 0.00000000e+00, 3.19833860e+01, 2.31000000e+00, 0.00000000e+00, -1.43525132e+03, 1.01368334e+04, 0.00000000e+00, -1.74537282e+00, 5.14381229e-01, 5.29301298e-01, 3.64973238e+00, 0.00000000e+00, -0.6580389260, 4.5115755580, -1.4515833812, 3.9287720502, 16.0000000000, 10.0125544514, 0.1943200469
         150, 7.16492547e-01, 2.48233807e-02, 0.00000000e+00, 0.00000000e+00, 0.00000000e+00, 1.03875408e-01, -4.07587194e-03, 7.16910843e-01, 0.00000000e+00, 2.88636167e+01, 2.31000000e+00, 0.00000000e+00, -1.32223118e+03, 1.01392946e+04, 0.00000000e+00, -1.80060007e+00, 5.45924765e-01, 4.71619591e-01, 3.62003829e+00, 0.00000000e+00, -0.6765315585, 4.4811809928, -1.4909474159, 3.9086016456, 16.0000000000, 10.5575925849, 0.2083838979
         160, 7.18371960e-01, 2.70194577e-02, 0.00000000e+00, 0.00000000e+00, 0.00000000e+00, 9.71295302e-02, -1.95733155e-03, 7.18877245e-01, 0.00000000e+00, 2.65872087e+01, 2.31000000e+00, 0.00000000e+00, -1.15159664e+03, 1.00512138e+04, 0.00000000e+00, -1.95265495e+00, 4.38723869e-01, 2.41999710e-01, 3.47153690e+00, 0.00000000e+00, -0.7074657416, 4.4318766246, -1.4932588836, 3.8541517131, 18.0000000000, 12.5005627491, 0.2227827152
         170, 7.11709887e-01, 2.52969408e-02, 0.00000000e+00, 0.00000000e+00, 0.00000000e+00, 9.28979608e-02, -3.40992596e-03, 7.12151157e-01, 0.00000000e+00, 2.81342275e+01, 2.31000000e+00, 0.00000000e+00, -8.84868983e+02, 9.75358012e+03, 0.00000000e+00, -2.01808927e+00, 2.17475400e-01, 3.25084628e-01, 3.35478962e+00, 0.00000000e+00, -0.7775821722, 4.3283820773, -1.4875781338, 3.7979808465, 19.0000000000, 13.6694780109, 0.2375510653
         180, 6.95826239e-01, 1.93031855e-02, 0.00000000e+00, 0.00000000e+00, 0.00000000e+00, 9.07827811e-02, -8.75860136e-03, 6.96038831e-01, 0.00000000e+00, 3.60472234e+01, 2.31000000e+00, 0.00000000e+00, -5.74068038e+02, 9.25060471e+03, 0.00000000e+00, -2.10569692e+00, 1.44799722e-01, 2.54515355e-01, 3.28993966e+00, 0.00000000e+00, -0.8399951772, 4.1948448967, -1.4629495750, 3.7640201047, 20.0000000000, 14.9769442805, 0.2524258812
         190, 6.88979674e-01, 1.15243694e-02, 0.00000000e+00, 0.00000000e+00, 0.00000000e+00, 9.83103752e-02, -1.62551373e-02, 6.88884296e-01, 0.00000000e+00, 5.97845880e+01, 2.31000000e+00, 0.00000000e+00, -2.83479295e+02, 8.40506228e+03, 0.00000000e+00, -2.21572643e+00, 2.05332014e-01, 9.21802144e-02, 3.21135349e+00, 0.00000000e+00, -0.7930332119, 4.1455781603, -1.3294086403, 3.7270939121, 22.0000000000, 17.0009445365, 0.2675935984
         200, 7.00576967e-01, 6.76183609e-03, 0.00000000e+00, 0.00000000e+00, 0.00000000e+00, 1.06676953e-01, -2.14812431e-02, 7.00280205e-01, 0.00000000e+00, 1.03607505e+02, 2.31000000e+00, 0.00000000e+00, -2.92363942e+02, 7.62722602e+03, 0.00000000e+00, -2.36575178e+00, 2.22905289e-01, -1.67097293e-01, 3.08123487e+00, 0.00000000e+00, -0.6428353345, 4.1788698032, -1.1653157151, 3.7021910615, 23.0000000000, 20.0937171109, 0.2831068317
         210, 7.14784789e-01, 1.17072200e-02, 0.00000000e+00, 0.00000000e+00, 0.00000000e+00, 1.05755968e-01, -1.71125409e-02, 7.14675810e-01, 0.00000000e+00, 6.10550402e+01, 2.31000000e+00, 0.00000000e+00, -3.97734255e+02, 7.23232117e+03, 0.00000000e+00, -2.43393921e+00, 8.35928164e-02, -1.70381357e-01, 2.96650201e+00, 0.00000000e+00, -0.4116163496, 4.4768166466, -0.9516801236, 3.8739026672, 25.0000000000, 22.1691424570, 0.2990747333
         220, 7.23783403e-01, 2.16991786e-02, 0.00000000e+00, 0.00000000e+00, 0.00000000e+00, 1.02848341e-01, -7.49140191e-03, 7.24069850e-01, 0.00000000e+00, 3.33553365e+01, 2.31000000e+00, 0.00000000e+00, -4.15167430e+02, 7.22258291e+03, 0.00000000e+00, -2.43033620e+00, -1.12576223e-01, -5.48218663e-02, 2.95911625e+00, 0.00000000e+00, -0.3157455227, 4.6742638072, -0.8430106047, 3.8626194071, 24.0000000000, 21.5605896602, 0.3147402803
         230, 7.33788723e-01, 2.62201441e-02, 0.00000000e+00, 0.00000000e+00, 0.00000000e+00, 1.06603957e-01, -3.37738653e-03, 7.34249262e-01, 0.00000000e+00, 2.79856862e+01, 2.31000000e+00, 0.00000000e+00, -4.74610778e+02, 7.22039064e+03, 0.00000000e+00, -2.51171111e+00, 1.98357824e-02, -1.73079227e-01, 2.92491900e+00, 0.00000000e+00, -0.1182746837, 4.6713657183, -0.8582773482, 4.0397917868, 25.0000000000, 23.3587945071, 0.3303114971
         240, 7.58428597e-01, 1.73169000e-02, 0.00000000e+00, 0.00000000e+00, 0.00000000e+00, 1.20761089e-01, -1.32665349e-02, 7.58510258e-01, 0.00000000e+00, 4.37970189e+01, 2.31000000e+00, 0.00000000e+00, -7.07789721e+02, 6.75090690e+03, 0.00000000e+00, -2.65993850e+00, 3.81476462e-02, -4.67374661e-01, 2.80071236e+00, 0.00000000e+00, -0.2723360931, 4.4872818205, -0.7564394800, 3.7517278909, 28.0000000000, 27.9105789574, 0.3465112170
         250, 7.94456092e-01, 6.43786066e-03, 0.00000000e+00, 0.00000000e+00, 0.00000000e+00, 1.25769772e-01, -2.55888645e-02, 7.94069983e-01, 0.00000000e+00, 1.23403741e+02, 2.31000000e+00, 0.00000000e+00, -8.83128736e+02, 6.11143162e+03, 0.00000000e+00, -2.62167978e+00, -2.99791804e-01, -2.88727105e-01, 2.76386587e+00, 0.00000000e+00, -0.2076818764, 4.5681419604, -0.6786911684, 3.9122440510, 26.0000000000, 24.7804484449, 0.3628197312
         260, 8.09585432e-01, 9.95223214e-03, 0.00000000e+00, 0.00000000e+00, 0.00000000e+00, 1.16034316e-01, -2.26871549e-02, 8.09328680e-01, 0.00000000e+00, 8.13471210e+01, 2.31000000e+00, 0.00000000e+00, -7.01923016e+02, 5.92214818e+03, 0.00000000e+00, -2.66205575e+00, -2.22843953e-01, -3.22250789e-01, 2.76141893e+00, 0.00000000e+00, -0.1802268755, 4.5890476515, -0.6318579596, 3.8931509701, 26.0000000000, 24.9376017168, 0.3789417466
         270, 8.01496241e-01, 2.02342994e-02, 0.00000000e+00, 0.00000000e+00, 0.00000000e+00, 1.06918680e-01, -1.20873986e-02, 8.01660493e-01, 0.00000000e+00, 3.96107730e+01, 2.31000000e+00, 0.00000000e+00, -2.61608228e+02, 5.73852301e+03, 0.00000000e+00, -2.84479919e+00, -2.70896996e-01, -6.39556332e-01, 2.59142642e+00, 0.00000000e+00, -0.1337552429, 4.4425012148, -0.5793268318, 3.8445437016, 29.0000000000, 30.7283146143, 0.3959536831
         280, 7.94734535e-01, 2.12330591e-02, 0.00000000e+00, 0.00000000e+00, 0.00000000e+00, 1.15521550e-01, -1.08169119e-02, 7.94944538e-01, 0.00000000e+00, 3.74291114e+01, 2.31000000e+00, 0.00000000e+00, 8.20305139e+00, 5.17790195e+03, 0.00000000e+00, -2.87347090e+00, -4.78846101e-01, -5.30711578e-01, 2.53274333e+00, 0.00000000e+00, -0.1417238343, 4.3947243359, -0.5667834985, 3.8891255485, 29.0000000000, 31.5203879790, 0.4130942305
         290, 8.16783969e-01, 1.61253253e-02, 0.00000000e+00, 0.00000000e+00, 0.00000000e+00, 1.27571112e-01, -1.68092237e-02, 8.16770181e-01, 0.00000000e+00, 5.06522477e+01, 2.31000000e+00, 0.00000000e+00, -4.31447334e+02, 4.70713184e+03, 0.00000000e+00, -3.15752950e+00, -6.98833687e-01, -9.05558237e-01, 2.26343818e+00, 0.00000000e+00, -0.1632519466, 4.1621299235, -0.5804148419, 3.8202296480, 34.0000000000, 42.9622422865, 0.4307876984
         300, 8.35038598e-01, 1.51224768e-02, 0.00000000e+00, 0.00000000e+00, 0.00000000e+00, 1.22079344e-01, -1.85470317e-02, 8.34969554e-01, 0.00000000e+00, 5.52183753e+01, 2.31000000e+00, 0.00000000e+00, -8.03145435e+02, 4.64240712e+03, 0.00000000e+00, -3.25264403e+00, -6.43480711e-01, -9.60260672e-01, 2.18198269e+00, 0.00000000e+00, -0.1461525158, 4.2247161000, -0.5656157594, 3.8406180788, 36.0000000000, 47.8150341417, 0.4494658152
         310, 8.30007353e-01, 1.68168016e-02, 0.00000000e+00, 0.00000000e+00, 0.00000000e+00, 1.17336540e-01, -1.66512934e-02, 8.30010690e-01, 0.00000000e+00, 4.93558390e+01, 2.31000000e+00, 0.00000000e+00, -4.24705173e+02, 4.09880156e+03, 0.00000000e+00, -3.28197189e+00, -7.84170981e-01, -1.00608472e+00, 2.14257102e+00, 0.00000000e+00, -0.1668966891, 4.1978009622, -0.5789959518, 3.7266655105, 35.0000000000, 48.0839352763, 0.4687441667
         320, 8.23260156e-01, 1.66769250e-02, 0.00000000e+00, 0.00000000e+00, 0.00000000e+00, 1.18156085e-01, -1.65191026e-02, 8.23263337e-01, 0.00000000e+00, 4.93652251e+01, 2.31000000e+00, 0.00000000e+00, -3.34153829e+02, 3.90157184e+03, 0.00000000e+00, -3.29918679e+00, -7.44763087e-01, -1.07129232e+00, 2.13993817e+00, 0.00000000e+00, -0.1899012602, 4.0703273879, -0.5844874578, 3.7212416441, 33.0000000000, 40.8977386832, 0.4867193977
         330, 8.18044073e-01, 1.59370167e-02, 0.00000000e+00, 0.00000000e+00, 0.00000000e+00, 1.16926814e-01, -1.70481692e-02, 8.18021671e-01, 0.00000000e+00, 5.13298120e+01, 2.31000000e+00, 0.00000000e+00, -5.15905597e+02, 3.83896524e+03, 0.00000000e+00, -3.39059190e+00, -1.06282596e+00, -1.06401778e+00, 2.00672613e+00, 0.00000000e+00, -0.1562507073, 4.2570600894, -0.5890728945, 3.8259308778, 34.0000000000, 45.7918429610, 0.5051945170
         340, 8.08408425e-01, 1.55313468e-02, 0.00000000e+00, 0.00000000e+00, 0.00000000e+00, 1.13549000e-01, -1.70651333e-02, 8.08377502e-01, 0.00000000e+00, 5.20501176e+01, 2.31000000e+00, 0.00000000e+00, -5.88454163e+02, 3.68652982e+03, 0.00000000e+00, -3.54163658e+00, -9.28667746e-01, -1.39758083e+00, 1.90440073e+00, 0.00000000e+00, -0.0989429070, 4.0657341134, -0.5696908441, 3.6625795790, 38.0000000000, 54.3974576615, 0.5241100152
         350, 7.94032441e-01, 1.55674172e-02, 0.00000000e+00, 0.00000000e+00, 0.00000000e+00, 1.10666472e-01, -1.64496512e-02, 7.94014654e-01, 0.00000000e+00, 5.10060489e+01, 2.31000000e+00, 0.00000000e+00, -5.21350011e+02, 3.56850596e+03, 0.00000000e+00, -3.44916433e+00, -1.09909621e+00, -1.27747585e+00, 1.95588540e+00, 0.00000000e+00, -0.1236107245, 4.1164531114, -0.5812450895, 3.7855189001, 33.0000000000, 39.7045167919, 0.5424553990
         360, 7.79127224e-01, 1.63782875e-02, 0.00000000e+00, 0.00000000e+00, 0.00000000e+00, 1.09643069e-01, -1.50386673e-02, 7.79154233e-01, 0.00000000e+00, 4.75707379e+01, 2.31000000e+00, 0.00000000e+00, -4.82481759e+02, 3.51143619e+03, 0.00000000e+00, -3.46340421e+00, -1.04949340e+00, -1.44542215e+00, 1.94127096e+00, 0.00000000e+00, -0.1338588619, 4.4651721842, -0.5606257513, 3.8540996645, 33.0000000000, 40.2086360087, 0.5603912155
         370, 7.67350544e-01, 1.78202643e-02, 0.00000000e+00, 0.00000000e+00, 0.00000000e+00, 1.11873679e-01, -1.31231893e-02, 7.67445243e-01, 0.00000000e+00, 4.30605591e+01, 2.31000000e+00, 0.00000000e+00, -4.86164833e+02, 3.49365505e+03, 0.00000000e+00, -3.44969163e+00, -1.05957473e+00, -1.38567318e+00, 1.94730642e+00, 0.00000000e+00, -0.1448276283, 4.2305606693, -0.4933782857, 3.9904115297, 33.0000000000, 38.3623999752, 0.5783291658
         380, 7.62209815e-01, 2.02319535e-02, 0.00000000e+00, 0.00000000e+00, 0.00000000e+00, 1.18300588e-01, -1.05062568e-02, 7.62405898e-01, 0.00000000e+00, 3.76735651e+01, 2.31000000e+00, 0.00000000e+00, -5.13760396e+02, 3.48185087e+03, 0.00000000e+00, -3.39969305e+00, -9.44574662e-01, -1.36362903e+00, 1.99705866e+00, 0.00000000e+00, -0.1002234535, 4.6848295036, -0.4305563558, 4.0874163732, 31.0000000000, 33.0717312660, 0.5959612131
         390, 7.63867566e-01, 2.39068846e-02, 0.00000000e+00, 0.00000000e+00, 0.00000000e+00, 1.28648676e-01, -6.90112957e-03, 7.64210424e-01, 0.00000000e+00, 3.19517820e+01, 2.31000000e+00, 0.00000000e+00, -5.01517237e+02, 3.46061902e+03, 0.00000000e+00, -3.31964720e+00, -8.23147153e-01, -1.19364289e+00, 2.06907258e+00, 0.00000000e+00, -0.0650307365, 4.2630813409, -0.4246735973, 3.7266015751, 27.0000000000, 25.2296510378, 0.6128754814
         400, 7.69622754e-01, 2.83106683e-02, 0.00000000e+00, 0.00000000e+00, 0.00000000e+00, 1.41299418e-01, -2.73289418e-03, 7.70138435e-01, 0.00000000e+00, 2.71849024e+01, 2.31000000e+00, 0.00000000e+00, -4.97856867e+02, 3.44036774e+03, 0.00000000e+00, -3.23686082e+00, -7.07833637e-01, -1.04546575e+00, 2.14623541e+00, 0.00000000e+00, -0.0570240565, 4.6777569423, -0.4336879947, 3.7124790292, 24.0000000000, 18.7451467060, 0.6289050500
         410, 7.75693238e-01, 3.26589572e-02, 0.00000000e+00, 0.00000000e+00, 0.00000000e+00, 1.53845480e-01, 1.36718317e-03, 7.76379248e-01, 0.00000000e+00, 2.37513168e+01, 2.31000000e+00, 0.00000000e+00, -4.95696629e+02, 3.42334069e+03, 0.00000000e+00, -3.16302428e+00, -6.15110708e-01, -9.37284781e-01, 2.21580310e+00, 0.00000000e+00, -0.0497288868, 4.3901110621, -0.4388794735, 3.6814301575, 21.0000000000, 14.4909253595, 0.6440832496
         420, 7.78507633e-01, 3.62896262e-02, 0.00000000e+00, 0.00000000e+00, 0.00000000e+00, 1.63802813e-01, 4.88146424e-03, 7.79337695e-01, 0.00000000e+00, 2.14526220e+01, 2.31000000e+00, 0.00000000e+00, -5.29413265e+02, 3.40954609e+03, 0.00000000e+00, -3.10726688e+00, -5.40952941e-01, -8.57207442e-01, 2.26802944e+00, 0.00000000e+00, -0.0424021553, 4.6924576837, -0.4305016815, 3.7820365542, 19.0000000000, 11.9024604298, 0.6590037306
         430, 7.75342428e-01, 3.88221933e-02, 0.00000000e+00, 0.00000000e+00, 0.00000000e+00, 1.69442391e-01, 7.53955074e-03, 7.76277140e-01, 0.00000000e+00, 1.99716286e+01, 2.31000000e+00, 0.00000000e+00, -5.56108121e+02, 3.40596708e+03, 0.00000000e+00, -3.06298954e+00, -4.76395910e-01, -7.91874732e-01, 2.31092614e+00, 0.00000000e+00, -0.0331753479, 4.5588415842, -0.4300594623, 3.7585264048, 17.0000000000, 10.1763556007, 0.6722220500
         440, 7.63714108e-01, 4.01243113e-02, 0.00000000e+00, 0.00000000e+00, 0.00000000e+00, 1.69616478e-01, 9.30930379e-03, 7.64710753e-01, 0.00000000e+00, 1.90337001e+01, 2.31000000e+00, 0.00000000e+00, -6.04847905e+02, 3.44284518e+03, 0.00000000e+00, -3.02371000e+00, -4.12401132e-01, -7.17808954e-01, 2.35211328e+00, 0.00000000e+00, -0.0581599458, 4.6950836953, -0.4797886737, 3.8038180388, 17.0000000000, 10.0100000000, 0.6851716161
         450, 7.39750112e-01, 3.99405035e-02, 0.00000000e+00, 0.00000000e+00, 0.00000000e+00, 1.62473952e-01, 1.00915426e-02, 7.40758822e-01, 0.00000000e+00, 1.85213016e+01, 2.31000000e+00, 0.00000000e+00, -6.57349135e+02, 3.54625417e+03, 0.00000000e+00, -2.97795159e+00, -3.40823835e-01, -6.21952980e-01, 2.40662924e+00, 0.00000000e+00, -0.0426871426, 4.7717998578, -0.5348286359, 3.8716732436, 18.0000000000, 10.0100000000, 0.6978835503
         460, 7.01272364e-01, 3.81721201e-02, 0.00000000e+00, 0.00000000e+00, 0.00000000e+00, 1.46897192e-01, 9.87548739e-03, 7.02241066e-01, 0.00000000e+00, 1.83713234e+01, 2.31000000e+00, 0.00000000e+00, -7.36618331e+02, 3.43821326e+03, 0.00000000e+00, -2.91889813e+00, -2.65926885e-01, -5.11104961e-01, 2.48153853e+00, 0.00000000e+00, -0.0336767463, 4.9786670792, -0.5594204755, 3.6925014671, 18.0000000000, 10.0100000000, 0.7103920499
         470, 6.48932260e-01, 3.52155534e-02, 0.00000000e+00, 0.00000000e+00, 0.00000000e+00, 1.23883256e-01, 9.03095314e-03, 6.49824326e-01, 0.00000000e+00, 1.84274333e+01, 2.31000000e+00, 0.00000000e+00, -8.21070136e+02, 3.31644489e+03, 0.00000000e+00, -2.84629823e+00, -1.86940747e-01, -4.02538256e-01, 2.57105149e+00, 0.00000000e+00, -0.0912314762, 4.9418868297, -0.5408247509, 3.6056567467, 18.0000000000, 10.0100000000, 0.7228549639
         480, 5.84752269e-01, 3.16298547e-02, 0.00000000e+00, 0.00000000e+00, 0.00000000e+00, 9.55627448e-02, 8.03501885e-03, 5.85551964e-01, 0.00000000e+00, 1.84873523e+01, 2.31000000e+00, 0.00000000e+00, -8.63038071e+02, 3.31401370e+03, 0.00000000e+00, -2.77395167e+00, -1.02834215e-01, -3.06308716e-01, 2.65642961e+00, 0.00000000e+00, -0.0658442830, 4.7682531814, -0.5115031884, 3.7279876564, 18.0000000000, 10.0100000000, 0.7353916168
         490, 5.09486944e-01, 2.74604637e-02, 0.00000000e+00, 0.00000000e+00, 0.00000000e+00, 6.32875373e-02, 6.90267403e-03, 5.10179749e-01, 0.00000000e+00, 1.85534720e+01, 2.31000000e+00, 0.00000000e+00, -9.00893413e+02, 3.34482728e+03, 0.00000000e+00, -2.71070783e+00, -3.00918414e-02, -2.21652307e-01, 2.72600181e+00, 0.00000000e+00, -0.0168518592, 4.9296422880, -0.4840405831, 3.9973041182, 18.0000000000, 10.0100000000, 0.7479874651
         500, 4.25093318e-01, 2.27894933e-02, 0.00000000e+00, 0.00000000e+00, 0.00000000e+00, 2.92028595e-02, 5.63708443e-03, 4.25666434e-01, 0.00000000e+00, 1.86530394e+01, 2.31000000e+00, 0.00000000e+00, -9.43494516e+02, 3.64109113e+03, 0.00000000e+00, -2.65910435e+00, 8.67008283e-03, -1.50878506e-01, 2.77358410e+00, 0.00000000e+00, 0.0238457058, 5.0062227119, -0.4616746961, 3.9413640242, 18.0000000000, 10.0100000000, 0.7604411483
         510, 3.38944755e-01, 1.89003049e-02, 0.00000000e+00, 0.00000000e+00, 0.00000000e+00, -9.86005316e-04, 5.22337631e-03, 3.39431119e-01, 0.00000000e+00, 1.79332956e+01, 2.31000000e+00, 0.00000000e+00, -9.68396215e+02, 3.94208444e+03, 0.00000000e+00, -2.62122764e+00, 3.86353038e-03, -1.06028055e-01, 2.79499227e+00, 0.00000000e+00, 0.0664988820, 5.0660989687, -0.4319490197, 3.9124510849, 17.0000000000, 10.0100000000, 0.7727686644
         520, 2.50915146e-01, 1.56645188e-02, 0.00000000e+00, 0.00000000e+00, 0.00000000e+00, -2.69796481e-02, 5.53835735e-03, 2.51342624e-01, 0.00000000e+00, 1.60180564e+01, 2.31000000e+00, 0.00000000e+00, -1.00663518e+03, 4.66698406e+03, 0.00000000e+00, -2.60658786e+00, -4.35272903e-02, -9.79937580e-02, 2.78654108e+00, 0.00000000e+00, 0.1207171577, 5.1468559881, -0.3837535808, 3.9415663939, 18.0000000000, 10.0100000000, 0.7854367812
         530, 1.48974718e-01, 9.93430789e-03, 0.00000000e+00, 0.00000000e+00, 0.00000000e+00, -5.82189031e-02, 3.92163260e-03, 1.49254072e-01, 0.00000000e+00, 1.49959836e+01, 2.31000000e+00, 0.00000000e+00, -1.11435672e+03, 5.68705653e+03, 0.00000000e+00, -2.61537530e+00, -6.18025691e-02, -9.15097708e-02, 2.76197495e+00, 0.00000000e+00, 0.1776546454, 5.2522950190, -0.3337838086, 3.9938112091, 18.0000000000, 10.0932119410, 0.7980771979
         540, 4.80458028e-02, 3.90778957e-03, 0.00000000e+00, 0.00000000e+00, 0.00000000e+00, -8.69962485e-02, 1.96807102e-03, 4.81642677e-02, 0.00000000e+00, 1.22948797e+01, 2.31000000e+00, 0.00000000e+00, -1.18702620e+03, 6.96116857e+03, 0.00000000e+00, -2.61992251e+00, -9.82482622e-02, -8.84619333e-02, 2.74873236e+00, 0.00000000e+00, 0.2346394942, 5.3685239975, -0.2771678894, 4.1039017274, 18.0000000000, 10.1599236806, 0.8108815670
         550, -2.27154730e-02, 3.60135519e-03, 0.00000000e+00, 0.00000000e+00, 0.00000000e+00, -9.45279042e-02, 4.51400268e-03, -2.25518569e-02, 0.00000000e+00, -6.30747921e+00, 2.31000000e+00, 0.00000000e+00, -1.15935051e+03, 8.50212685e+03, 0.00000000e+00, -2.61135236e+00, -3.96356578e-02, -1.15125791e-01, 2.76187775e+00, 0.00000000e+00, 0.2967909424, 5.4808789335, -0.2206456472, 4.1927380441, 18.0000000000, 10.0100000000, 0.8234883467
         560, -9.48577843e-02, 2.83888515e-03, 0.00000000e+00, 0.00000000e+00, 0.00000000e+00, -1.02152145e-01, 6.65993353e-03, -9.46662759e-02, 0.00000000e+00, -3.34137449e+01, 2.31000000e+00, 0.00000000e+00, -1.21452402e+03, 9.73077464e+03, 0.00000000e+00, -2.62714233e+00, -4.12680521e-02, -1.69806162e-01, 2.76675469e+00, 0.00000000e+00, 0.3365324290, 5.5838359309, -0.1925923736, 4.3115178349, 18.0000000000, 10.1574418076, 0.8355960647
         570, -1.70846311e-01, 9.03288307e-04, 0.00000000e+00, 0.00000000e+00, 0.00000000e+00, -1.13682272e-01, 7.78871715e-03, -1.70671069e-01, 0.00000000e+00, -1.89138185e+02, 2.31000000e+00, 0.00000000e+00, -1.36730370e+03, 1.20837728e+04, 0.00000000e+00, -2.64602760e+00, -2.18547442e-03, -1.59686093e-01, 2.76400667e+00, 0.00000000e+00, 0.3660300935, 5.6626744781, -0.1867777464, 4.3660191132, 18.0000000000, 10.3858984754, 0.8477081140
         580, -2.07891910e-01, 7.11228559e-03, 0.00000000e+00, 0.00000000e+00, 0.00000000e+00, -9.90677764e-02, 1.54858356e-02, -2.07436303e-01, 0.00000000e+00, -2.92299722e+01, 2.31000000e+00, 0.00000000e+00, -1.42921273e+03, 1.38517313e+04, 0.00000000e+00, -2.66005790e+00, 8.64500481e-02, -1.38979373e-01, 2.77400993e+00, 0.00000000e+00, 0.4019997071, 5.7098844322, -0.1588200151, 4.4058304954, 18.0000000000, 10.5599978905, 0.8599727829
         590, -2.51639946e-01, 1.06992717e-02, 0.00000000e+00, 0.00000000e+00, 0.00000000e+00, -9.02968803e-02, 2.08332233e-02, -2.51004210e-01, 0.00000000e+00, -2.35193528e+01, 2.31000000e+00, 0.00000000e+00, -1.60648500e+03, 1.52329472e+04, 0.00000000e+00, -2.70143676e+00, 1.01906524e-01, -1.97626857e-01, 2.76973628e+00, 0.00000000e+00, 0.4296211382, 5.7177301368, -0.1186520946, 4.4136471877, 18.0000000000, 11.0346437193, 0.8730956475
         600, -2.89723456e-01, 1.27026179e-02, 0.00000000e+00, 0.00000000e+00, 0.00000000e+00, -8.24030357e-02, 2.43699424e-02, -2.88976025e-01, 0.00000000e+00, -2.28081691e+01, 2.31000000e+00, 0.00000000e+00, -1.74418956e+03, 1.61435111e+04, 0.00000000e+00, -2.74439623e+00, 4.71725515e-02, -2.43419262e-01, 2.73011242e+00, 0.00000000e+00, 0.4578547637, 5.6926373649, -0.0715893223, 4.4156921231, 19.0000000000, 11.5909102219, 0.8856313984
         610, -2.89460285e-01, 1.86814460e-02, 0.00000000e+00, 0.00000000e+00, 0.00000000e+00, -5.72914635e-02, 3.03333046e-02, -2.88472084e-01, 0.00000000e+00, -1.54945332e+01, 2.31000000e+00, 0.00000000e+00, -1.70939759e+03, 1.62184197e+04, 0.00000000e+00, -2.77560170e+00, 7.79698583e-02, -2.35654976e-01, 2.70483221e+00, 0.00000000e+00, 0.4683236165, 5.6417228169, -0.0205352298, 4.4886797457, 19.0000000000, 12.0667337149, 0.9000322819
         620, -2.87066985e-01, 2.25564741e-02, 0.00000000e+00, 0.00000000e+00, 0.00000000e+00, -4.06517610e-02, 3.41087189e-02, -2.85924542e-01, 0.00000000e+00, -1.27265895e+01, 2.31000000e+00, 0.00000000e+00, -1.70633374e+03, 1.52614565e+04, 0.00000000e+00, -2.78349488e+00, 9.42740334e-02, -2.10807607e-01, 2.71694825e+00, 0.00000000e+00, 0.4854098478, 5.5628533401, -0.0231959267, 4.3742420978, 18.0000000000, 12.1954220334, 0.9138873299
         630, -2.76559746e-01, 2.34044544e-02, 0.00000000e+00, 0.00000000e+00, 0.00000000e+00, -3.09473620e-02, 3.45325034e-02, -2.75391663e-01, 0.00000000e+00, -1.18165432e+01, 2.31000000e+00, 0.00000000e+00, -1.61302198e+03, 1.34765888e+04, 0.00000000e+00, -2.79548299e+00, 1.01755068e-02, -2.48638412e-01, 2.65428205e+00, 0.00000000e+00, 0.5269645285, 5.4580410101, 0.0356098647, 4.3754796156, 19.0000000000, 12.3091732759, 0.9274022818
         640, -2.35388533e-01, 2.62673809e-02, 0.00000000e+00, 0.00000000e+00, 0.00000000e+00, -1.25615475e-02, 3.57336489e-02, -2.34138513e-01, 0.00000000e+00, -8.96124872e+00, 2.31000000e+00, 0.00000000e+00, -1.35332273e+03, 1.18471882e+04, 0.00000000e+00, -2.79748341e+00, 8.48849550e-02, -2.07463305e-01, 2.66422251e+00, 0.00000000e+00, 0.5666227144, 5.3381305904, 0.1026818527, 4.1704142241, 19.0000000000, 12.2552056168, 0.9405610164
         650, -2.03719292e-01, 2.37690233e-02, 0.00000000e+00, 0.00000000e+00, 0.00000000e+00, -8.87577729e-03, 3.19608554e-02, -2.02595707e-01, 0.00000000e+00, -8.57078937e+00, 2.31000000e+00, 0.00000000e+00, -1.16411156e+03, 1.02451214e+04, 0.00000000e+00, -2.81514262e+00, 2.82494135e-02, -2.20785200e-01, 2.65334024e+00, 0.00000000e+00, 0.6097048990, 5.2380740748, 0.1655175239, 4.4715985759, 19.0000000000, 12.4849534063, 0.9536994298
         660, -1.50244492e-01, 1.87644370e-02, 0.00000000e+00, 0.00000000e+00, 0.00000000e+00, 1.34767986e-03, 2.48049708e-02, -1.49366076e-01, 0.00000000e+00, -8.00687446e+00, 2.31000000e+00, 0.00000000e+00, -8.81655022e+02, 1.04920792e+04, 0.00000000e+00, -2.85298621e+00, -1.24070374e-02, -2.76790524e-01, 2.59877789e+00, 0.00000000e+00, 0.6263247750, 5.0926877458, 0.1777994492, 4.5766917163, 20.0000000000, 13.0026163409, 0.9668367306