TITLE = "SU2 Simulation"
VARIABLES = "Iteration","CL","CD","CSF","CMx","CMy","CMz","CFx","CFy","CFz","CL/CD","AoA","Custom_ObjFunc","HeatFlux_Total","HeatFlux_Maximum","Temperature_Total","Res_Flow[0]","Res_Flow[1]","Res_Flow[2]","Res_Flow[3]","Res_Flow[4]","Res_Turb[0]","Res_Turb[1]","Linear_Solver_Iterations","CFL_Number","Time(min)"
ZONE T= "Convergence history"
           0, -4.00000173e-01, 2.01249572e-01, 0.00000000e+00, 0.00000000e+00, 0.00000000e+00, -3.00000369e-01, 2.01249572e-01, -4.00000173e-01, 0.00000000e+00, -1.98758273e+00, 0.00000000e+00, 0.00000000e+00, -8.74672925e+04, 7.87986278e+04, 0.00000000e+00, -2.26369284e+00, 6.52141827e-02, 1.21914533e-01, 3.20528024e+00, 0.00000000e+00, 2.1823431229, 6.1387840048, 8.0000000000, 10.0000000000, 0.0012188673
          10, -2.96920767e-02, 8.38855327e-02, 0.00000000e+00, 0.00000000e+00, 0.00000000e+00, -4.86591211e-02, 8.38855327e-02, -2.96920767e-02, 0.00000000e+00, -3.53959446e-01, 0.00000000e+00, 0.00000000e+00, -6.68279411e+03, 6.02168302e+03, 0.00000000e+00, -3.11667400e+00, -4.68131546e-01, -7.41423466e-01, 2.36471618e+00, 0.00000000e+00, -0.3166472021, 5.3837003738, 10.0000000000, 25.1517328323, 0.0135503610
          20, -3.41341022e-01, 5.01084640e-02, 0.00000000e+00, 0.00000000e+00, 0.00000000e+00, -2.42858222e-01, 5.01084640e-02, -3.41341022e-01, 0.00000000e+00, -6.81204322e+00, 0.00000000e+00, 0.00000000e+00, -2.60515487e+03, 2.35034157e+03, 0.00000000e+00, -3.47054860e+00, -7.83870644e-01, -7.54338051e-01, 2.01200554e+00, 0.00000000e+00, -0.8953052294, 4.6380018870, 10.0000000000, 39.3989013432, 0.0263172269
          30, -1.54920709e-01, 3.70926876e-02, 0.00000000e+00, 0.00000000e+00, 0.00000000e+00, -7.85699624e-02, 3.70926876e-02, -1.54920709e-01, 0.00000000e+00, -4.17658357e+00, 0.00000000e+00, 0.00000000e+00, -1.43053025e+03, 1.30028236e+03, 0.00000000e+00, -3.56438640e+00, -8.97866261e-01, -1.21927248e+00, 1.92434715e+00, 0.00000000e+00, -1.1364164420, 4.4907652868, 10.0000000000, 41.2443647014, 0.0393374483
          40, -1.38439520e-01, 2.99615902e-02, 0.00000000e+00, 0.00000000e+00, 0.00000000e+00, -1.43729982e-01, 2.99615902e-02, -1.38439520e-01, 0.00000000e+00, -4.62056652e+00, 0.00000000e+00, 0.00000000e+00, -9.37898119e+02, 8.42770674e+02, 0.00000000e+00, -3.69206499e+00, -1.07221033e+00, -1.08955806e+00, 1.75870354e+00, 0.00000000e+00, -1.3103400805, 4.1821089219, 10.0000000000, 47.5360476762, 0.0523029725
          50, -2.20309090e-01, 2.49046350e-02, 0.00000000e+00, 0.00000000e+00, 0.00000000e+00, -1.45211317e-01, 2.49046350e-02, -2.20309090e-01, 0.00000000e+00, -8.84610795e+00, 0.00000000e+00, 0.00000000e+00, -6.55200211e+02, 5.95649540e+02, 0.00000000e+00, -3.90405424e+00, -1.23042407e+00, -1.25478045e+00, 1.58056743e+00, 0.00000000e+00, -1.4459295669, 4.0960274790, 10.0000000000, 61.5195990757, 0.0650233785
          60, -1.68742760e-01, 2.09104748e-02, 0.00000000e+00, 0.00000000e+00, 0.00000000e+00, -1.36464244e-01, 2.09104748e-02, -1.68742760e-01, 0.00000000e+00, -8.06977183e+00, 0.00000000e+00, 0.00000000e+00, -4.56634542e+02, 4.18350003e+02, 0.00000000e+00, -4.15536031e+00, -1.35344799e+00, -1.61755882e+00, 1.29774170e+00, 0.00000000e+00, -1.5963169019, 3.9112828524, 10.0000000000, 81.8054414228, 0.0776930292
          70, -1.93306091e-01, 1.77685890e-02, 0.00000000e+00, 0.00000000e+00, 0.00000000e+00, -1.40223217e-01, 1.77685890e-02, -1.93306091e-01, 0.00000000e+00, -1.08790907e+01, 0.00000000e+00, 0.00000000e+00, -3.29180059e+02, 3.12392902e+02, 0.00000000e+00, -4.30909308e+00, -1.44664243e+00, -1.74469845e+00, 1.18073841e+00, 0.00000000e+00, -1.7610176665, 3.6285440147, 10.0000000000, 94.3800830860, 0.0906164567
          80, -1.85740759e-01, 1.53592026e-02, 0.00000000e+00, 0.00000000e+00, 0.00000000e+00, -1.40158337e-01, 1.53592026e-02, -1.85740759e-01, 0.00000000e+00, -1.20931251e+01, 0.00000000e+00, 0.00000000e+00, -2.43431326e+02, 2.46336178e+02, 0.00000000e+00, -4.63004812e+00, -1.56083215e+00, -2.10239028e+00, 8.54169969e-01, 0.00000000e+00, -1.9270830183, 3.3361800207, 10.0000000000, 102.7166231922, 0.1033872922
          90, -1.86030032e-01, 1.32290885e-02, 0.00000000e+00, 0.00000000e+00, 0.00000000e+00, -1.39876914e-01, 1.32290885e-02, -1.86030032e-01, 0.00000000e+00, -1.40621958e+01, 0.00000000e+00, 0.00000000e+00, -1.79612006e+02, 2.08028040e+02, 0.00000000e+00, -4.93603029e+00, -1.65650305e+00, -2.33667613e+00, 5.34871218e-01, 0.00000000e+00, -2.1057541449, 3.3025347587, 10.0000000000, 142.5958738404, 0.1163181822
         100, -1.86848942e-01, 1.13779193e-02, 0.00000000e+00, 0.00000000e+00, 0.00000000e+00, -1.40204438e-01, 1.13779193e-02, -1.86848942e-01, 0.00000000e+00, -1.64220660e+01, 0.00000000e+00, 0.00000000e+00, -1.31600308e+02, 1.85545794e+02, 0.00000000e+00, -5.18420226e+00, -1.74141748e+00, -2.68265884e+00, 2.70933642e-01, 0.00000000e+00, -2.2637577176, 3.1535789223, 10.0000000000, 177.8452614152, 0.1292975664
         110, -1.87123857e-01, 9.77481817e-03, 0.00000000e+00, 0.00000000e+00, 0.00000000e+00, -1.40384241e-01, 9.77481817e-03, -1.87123857e-01, 0.00000000e+00, -1.91434617e+01, 0.00000000e+00, 0.00000000e+00, -9.60819510e+01, 1.71669177e+02, 0.00000000e+00, -5.32624746e+00, -1.82606581e+00, -2.83536006e+00, 1.33608395e-01, 0.00000000e+00, -2.3441041992, 3.0250463921, 10.0000000000, 211.8519045936, 0.1423458536
         120, -1.87274649e-01, 8.47295461e-03, 0.00000000e+00, 0.00000000e+00, 0.00000000e+00, -1.40498535e-01, 8.47295461e-03, -1.87274649e-01, 0.00000000e+00, -2.21026381e+01, 0.00000000e+00, 0.00000000e+00, -7.15542027e+01, 1.63241894e+02, 0.00000000e+00, -5.45583067e+00, -1.90491479e+00, -2.99263623e+00, 7.61768563e-03, 0.00000000e+00, -2.3311361981, 2.9102106519, 10.0000000000, 247.0549994402, 0.1554312388
         130, -1.87282291e-01, 7.43154205e-03, 0.00000000e+00, 0.00000000e+00, 0.00000000e+00, -1.40527902e-01, 7.43154205e-03, -1.87282291e-01, 0.00000000e+00, -2.52010000e+01, 0.00000000e+00, 0.00000000e+00, -5.46688141e+01, 1.58038894e+02, 0.00000000e+00, -5.55938220e+00, -1.97790861e+00, -3.13527734e+00, -9.26747069e-02, 0.00000000e+00, -2.2640541157, 2.7944565328, 10.0000000000, 277.6584445497, 0.1682850718
         140, -1.87342900e-01, 6.60335761e-03, 0.00000000e+00, 0.00000000e+00, 0.00000000e+00, -1.40581956e-01, 6.60335761e-03, -1.87342900e-01, 0.00000000e+00, -2.83708548e+01, 0.00000000e+00, 0.00000000e+00, -4.29710508e+01, 1.54757901e+02, 0.00000000e+00, -5.64673768e+00, -2.04469093e+00, -3.26510938e+00, -1.76984369e-01, 0.00000000e+00, -2.1732281058, 2.6766986289, 10.0000000000, 299.7000000000, 0.1812185804
         150, -1.87347508e-01, 5.99223083e-03, 0.00000000e+00, 0.00000000e+00, 0.00000000e+00, -1.40602655e-01, 5.99223083e-03, -1.87347508e-01, 0.00000000e+00, -3.12650686e+01, 0.00000000e+00, 0.00000000e+00, -3.53639994e+01, 1.52791821e+02, 0.00000000e+00, -5.72439817e+00, -2.09831464e+00, -3.38466901e+00, -2.52246785e-01, 0.00000000e+00, -2.1319920591, 2.5571972966, 10.0000000000, 299.7000000000, 0.1943576296
         160, -1.87349743e-01, 5.55019733e-03, 0.00000000e+00, 0.00000000e+00, 0.00000000e+00, -1.40616614e-01, 5.55019733e-03, -1.87349743e-01, 0.00000000e+00, -3.37555103e+01, 0.00000000e+00, 0.00000000e+00, -3.04189937e+01, 1.51570916e+02, 0.00000000e+00, -5.78954466e+00, -2.13956147e+00, -3.51237577e+00, -3.15147970e-01, 0.00000000e+00, -2.1221553586, 2.4663389623, 10.0000000000, 299.7000000000, 0.2074566404
         170, -1.87350672e-01, 5.22722933e-03, 0.00000000e+00, 0.00000000e+00, 0.00000000e+00, -1.40629563e-01, 5.22722933e-03, -1.87350672e-01, 0.00000000e+00, -3.58412957e+01, 0.00000000e+00, 0.00000000e+00, -2.70419699e+01, 1.50789350e+02, 0.00000000e+00, -5.83915996e+00, -2.17219786e+00, -3.62587991e+00, -3.63111694e-01, 0.00000000e+00, -2.1207980128, 2.3900600910, 10.0000000000, 299.7000000000, 0.2205813646
         180, -1.87331903e-01, 4.98584713e-03, 0.00000000e+00, 0.00000000e+00, 0.00000000e+00, -1.40628346e-01, 4.98584713e-03, -1.87331903e-01, 0.00000000e+00, -3.75727329e+01, 0.00000000e+00, 0.00000000e+00, -2.46575781e+01, 1.50297739e+02, 0.00000000e+00, -5.87844962e+00, -2.19843993e+00, -3.75535859e+00, -4.01671748e-01, 0.00000000e+00, -2.1261430379, 2.3168537350, 10.0000000000, 299.7000000000, 0.2336738547
         190, -1.87322249e-01, 4.80010961e-03, 0.00000000e+00, 0.00000000e+00, 0.00000000e+00, -1.40631532e-01, 4.80010961e-03, -1.87322249e-01, 0.00000000e+00, -3.90245773e+01, 0.00000000e+00, 0.00000000e+00, -2.29441871e+01, 1.50008480e+02, 0.00000000e+00, -5.90457904e+00, -2.22022102e+00, -3.84991247e+00, -4.27244649e-01, 0.00000000e+00, -2.1398673355, 2.2489810588, 10.0000000000, 299.7000000000, 0.2467421015
         200, -1.87297692e-01, 4.65251742e-03, 0.00000000e+00, 0.00000000e+00, 0.00000000e+00, -1.40624361e-01, 4.65251742e-03, -1.87297692e-01, 0.00000000e+00, -4.02572791e+01, 0.00000000e+00, 0.00000000e+00, -2.16786384e+01, 1.49863473e+02, 0.00000000e+00, -5.92561818e+00, -2.23936479e+00, -3.93628182e+00, -4.47976053e-01, 0.00000000e+00, -2.1598882105, 2.1824313410, 10.0000000000, 299.7000000000, 0.2600121021
         210, -1.87276464e-01, 4.53075256e-03, 0.00000000e+00, 0.00000000e+00, 0.00000000e+00, -1.40616883e-01, 4.53075256e-03, -1.87276464e-01, 0.00000000e+00, -4.13345159e+01, 0.00000000e+00, 0.00000000e+00, -2.07073335e+01, 1.49823007e+02, 0.00000000e+00, -5.94117909e+00, -2.25696884e+00, -4.00131322e+00, -4.62145146e-01, 0.00000000e+00, -2.1841016705, 2.1226689183, 10.0000000000, 299.7000000000, 0.2732142289
         220, -1.87248552e-01, 4.42616023e-03, 0.00000000e+00, 0.00000000e+00, 0.00000000e+00, -1.40602998e-01, 4.42616023e-03, -1.87248552e-01, 0.00000000e+00, -4.23049647e+01, 0.00000000e+00, 0.00000000e+00, -1.99317414e+01, 1.49859188e+02, 0.00000000e+00, -5.95397364e+00, -2.27374501e+00, -4.01681363e+00, -4.72291585e-01, 0.00000000e+00, -2.2117220158, 2.0635644229, 10.0000000000, 299.7000000000, 0.2864398877
         230, -1.87218954e-01, 4.33269179e-03, 0.00000000e+00, 0.00000000e+00, 0.00000000e+00, -1.40584020e-01, 4.33269179e-03, -1.87218954e-01, 0.00000000e+00, -4.32107713e+01, 0.00000000e+00, 0.00000000e+00, -1.92913137e+01, 1.49951917e+02, 0.00000000e+00, -5.96473287e+00, -2.29018542e+00, -4.07196356e+00, -4.79330030e-01, 0.00000000e+00, -2.2415977078, 2.0082501757, 10.0000000000, 299.9656135002, 0.2994306962
         240, -1.87188320e-01, 4.24631290e-03, 0.00000000e+00, 0.00000000e+00, 0.00000000e+00, -1.40560015e-01, 4.24631290e-03, -1.87188320e-01, 0.00000000e+00, -4.40825545e+01, 0.00000000e+00, 0.00000000e+00, -1.87480007e+01, 1.50086310e+02, 0.00000000e+00, -5.96641865e+00, -2.30685383e+00, -4.03459974e+00, -4.79868731e-01, 0.00000000e+00, -2.2749859172, 1.9533499879, 10.0000000000, 299.6499248125, 0.3124979258
         250, -1.87156459e-01, 4.16473862e-03, 0.00000000e+00, 0.00000000e+00, 0.00000000e+00, -1.40529998e-01, 4.16473862e-03, -1.87156459e-01, 0.00000000e+00, -4.49383445e+01, 0.00000000e+00, 0.00000000e+00, -1.82789251e+01, 1.50249812e+02, 0.00000000e+00, -5.96060822e+00, -2.32466249e+00, -4.06207935e+00, -4.79870141e-01, 0.00000000e+00, -2.3123610975, 1.8974239605, 10.0000000000, 294.4328989671, 0.3256480972
         260, -1.87126649e-01, 4.08839971e-03, 0.00000000e+00, 0.00000000e+00, 0.00000000e+00, -1.40496331e-01, 4.08839971e-03, -1.87126649e-01, 0.00000000e+00, -4.57701452e+01, 0.00000000e+00, 0.00000000e+00, -1.78750372e+01, 1.50427768e+02, 0.00000000e+00, -5.94610549e+00, -2.34323702e+00, -4.02582749e+00, -4.78012378e-01, 0.00000000e+00, -2.3455844899, 1.8408915261, 10.0000000000, 280.6520967174, 0.3387714942
         270, -1.87098665e-01, 4.01699435e-03, 0.00000000e+00, 0.00000000e+00, 0.00000000e+00, -1.40458817e-01, 4.01699435e-03, -1.87098665e-01, 0.00000000e+00, -4.65767808e+01, 0.00000000e+00, 0.00000000e+00, -1.75230762e+01, 1.50609700e+02, 0.00000000e+00, -5.93211575e+00, -2.36209710e+00, -4.01271998e+00, -4.76943694e-01, 0.00000000e+00, -2.3757800429, 1.7910785787, 10.0000000000, 267.3439667718, 0.3520832340
         280, -1.87075165e-01, 3.94909635e-03, 0.00000000e+00, 0.00000000e+00, 0.00000000e+00, -1.40418557e-01, 3.94909635e-03, -1.87075165e-01, 0.00000000e+00, -4.73716385e+01, 0.00000000e+00, 0.00000000e+00, -1.72127610e+01, 1.50791857e+02, 0.00000000e+00, -5.91988275e+00, -2.38130075e+00, -3.97901882e+00, -4.72702747e-01, 0.00000000e+00, -2.4057632907, 1.7474423104, 10.0000000000, 255.8722787346, 0.3651302814
         290, -1.87055096e-01, 3.88400040e-03, 0.00000000e+00, 0.00000000e+00, 0.00000000e+00, -1.40374552e-01, 3.88400040e-03, -1.87055096e-01, 0.00000000e+00, -4.81604213e+01, 0.00000000e+00, 0.00000000e+00, -1.69404571e+01, 1.50972045e+02, 0.00000000e+00, -5.90984001e+00, -2.40108584e+00, -3.91797424e+00, -4.64375224e-01, 0.00000000e+00, -2.4341958098, 1.7117551119, 10.0000000000, 247.1433344226, 0.3784778039
         300, -1.87039825e-01, 3.82141878e-03, 0.00000000e+00, 0.00000000e+00, 0.00000000e+00, -1.40327481e-01, 3.82141878e-03, -1.87039825e-01, 0.00000000e+00, -4.89451263e+01, 0.00000000e+00, 0.00000000e+00, -1.67024703e+01, 1.51149371e+02, 0.00000000e+00, -5.90133468e+00, -2.42208976e+00, -3.87268197e+00, -4.53442044e-01, 0.00000000e+00, -2.4630863030, 1.6862526731, 10.0000000000, 239.9667616618, 0.3915637016
         310, -1.87030830e-01, 3.76167429e-03, 0.00000000e+00, 0.00000000e+00, 0.00000000e+00, -1.40279648e-01, 3.76167429e-03, -1.87030830e-01, 0.00000000e+00, -4.97201023e+01, 0.00000000e+00, 0.00000000e+00, -1.64949416e+01, 1.51322137e+02, 0.00000000e+00, -5.89211479e+00, -2.44484077e+00, -3.80729572e+00, -4.39553040e-01, 0.00000000e+00, -2.4935988204, 1.6715522849, 10.0000000000, 232.3566973130, 0.4044467409
         320, -1.87030241e-01, 3.70516846e-03, 0.00000000e+00, 0.00000000e+00, 0.00000000e+00, -1.40234816e-01, 3.70516846e-03, -1.87030241e-01, 0.00000000e+00, -5.04782017e+01, 0.00000000e+00, 0.00000000e+00, -1.63139652e+01, 1.51488826e+02, 0.00000000e+00, -5.88253447e+00, -2.46977822e+00, -3.75445751e+00, -4.25250112e-01, 0.00000000e+00, -2.5241362560, 1.6679397425, 10.0000000000, 224.9773248730, 0.4172372182
         330, -1.87041402e-01, 3.65202939e-03, 0.00000000e+00, 0.00000000e+00, 0.00000000e+00, -1.40199261e-01, 3.65202939e-03, -1.87041402e-01, 0.00000000e+00, -5.12157438e+01, 0.00000000e+00, 0.00000000e+00, -1.61544629e+01, 1.51648763e+02, 0.00000000e+00, -5.87318245e+00, -2.49714655e+00, -3.70544406e+00, -4.11788378e-01, 0.00000000e+00, -2.5558050790, 1.6718054127, 10.0000000000, 217.6662050770, 0.4302338600
         340, -1.87066852e-01, 3.60206908e-03, 0.00000000e+00, 0.00000000e+00, 0.00000000e+00, -1.40179569e-01, 3.60206908e-03, -1.87066852e-01, 0.00000000e+00, -5.19331663e+01, 0.00000000e+00, 0.00000000e+00, -1.60122097e+01, 1.51802359e+02, 0.00000000e+00, -5.86749059e+00, -2.52691660e+00, -3.66488842e+00, -4.03032681e-01, 0.00000000e+00, -2.5885774700, 1.6848997541, 10.0000000000, 212.9716210605, 0.4430673679
         350, -1.87106895e-01, 3.55442155e-03, 0.00000000e+00, 0.00000000e+00, 0.00000000e+00, -1.40179039e-01, 3.55442155e-03, -1.87106895e-01, 0.00000000e+00, -5.26406034e+01, 0.00000000e+00, 0.00000000e+00, -1.58820867e+01, 1.51952434e+02, 0.00000000e+00, -5.87139572e+00, -2.55869321e+00, -3.64265616e+00, -4.05112527e-01, 0.00000000e+00, -2.6221070601, 1.7095901778, 10.0000000000, 213.3260813562, 0.4562781175
         360, -1.87157157e-01, 3.50823443e-03, 0.00000000e+00, 0.00000000e+00, 0.00000000e+00, -1.40194599e-01, 3.50823443e-03, -1.87157157e-01, 0.00000000e+00, -5.33479620e+01, 0.00000000e+00, 0.00000000e+00, -1.57592615e+01, 1.52101828e+02, 0.00000000e+00, -5.89118056e+00, -2.59135355e+00, -3.63907112e+00, -4.23608055e-01, 0.00000000e+00, -2.6549820320, 1.7452472765, 10.0000000000, 217.8293430747, 0.4691047549
         370, -1.87210098e-01, 3.46290884e-03, 0.00000000e+00, 0.00000000e+00, 0.00000000e+00, -1.40216783e-01, 3.46290884e-03, -1.87210098e-01, 0.00000000e+00, -5.40615149e+01, 0.00000000e+00, 0.00000000e+00, -1.56403634e+01, 1.52252642e+02, 0.00000000e+00, -5.92316260e+00, -2.62362797e+00, -3.65620453e+00, -4.54155801e-01, 0.00000000e+00, -2.6859341734, 1.7904395221, 10.0000000000, 225.7922638749, 0.4820591847
         380, -1.87260386e-01, 3.41828583e-03, 0.00000000e+00, 0.00000000e+00, 0.00000000e+00, -1.40237798e-01, 3.41828583e-03, -1.87260386e-01, 0.00000000e+00, -5.47819565e+01, 0.00000000e+00, 0.00000000e+00, -1.55235553e+01, 1.52405530e+02, 0.00000000e+00, -5.95732007e+00, -2.65507940e+00, -3.68231201e+00, -4.86922961e-01, 0.00000000e+00, -2.7148009892, 1.8389329876, 10.0000000000, 234.9040415096, 0.4950178186
         390, -1.87307009e-01, 3.37466867e-03, 0.00000000e+00, 0.00000000e+00, 0.00000000e+00, -1.40255774e-01, 3.37466867e-03, -1.87307009e-01, 0.00000000e+00, -5.55038219e+01, 0.00000000e+00, 0.00000000e+00, -1.54089374e+01, 1.52559509e+02, 0.00000000e+00, -5.98781626e+00, -2.68599247e+00, -3.70836553e+00, -5.16593044e-01, 0.00000000e+00, -2.7416176582, 1.8852209849, 10.0000000000, 243.4052341314, 0.5079179287
         400, -1.87350788e-01, 3.33244996e-03, 0.00000000e+00, 0.00000000e+00, 0.00000000e+00, -1.40271530e-01, 3.33244996e-03, -1.87350788e-01, 0.00000000e+00, -5.62201354e+01, 0.00000000e+00, 0.00000000e+00, -1.52976482e+01, 1.52713269e+02, 0.00000000e+00, -6.01492131e+00, -2.71677627e+00, -3.73264671e+00, -5.43339747e-01, 0.00000000e+00, -2.7669103945, 1.9280966897, 10.0000000000, 251.2167284497, 0.5208997409
         410, -1.87392457e-01, 3.29195700e-03, 0.00000000e+00, 0.00000000e+00, 0.00000000e+00, -1.40285947e-01, 3.29195700e-03, -1.87392457e-01, 0.00000000e+00, -5.69243332e+01, 0.00000000e+00, 0.00000000e+00, -1.51909523e+01, 1.52865729e+02, 0.00000000e+00, -6.03920673e+00, -2.74771299e+00, -3.75392389e+00, -5.67605160e-01, 0.00000000e+00, -2.7908624546, 1.9674278433, 10.0000000000, 258.4043760988, 0.5337254683
         420, -1.87432584e-01, 3.25342907e-03, 0.00000000e+00, 0.00000000e+00, 0.00000000e+00, -1.40299688e-01, 3.25342907e-03, -1.87432584e-01, 0.00000000e+00, -5.76107793e+01, 0.00000000e+00, 0.00000000e+00, -1.50899037e+01, 1.53016115e+02, 0.00000000e+00, -6.06187147e+00, -2.77896569e+00, -3.77409882e+00, -5.90485267e-01, 0.00000000e+00, -2.8141450828, 2.0037554390, 10.0000000000, 265.2740708766, 0.5464284897
         430, -1.87471450e-01, 3.21702424e-03, 0.00000000e+00, 0.00000000e+00, 0.00000000e+00, -1.40313078e-01, 3.21702424e-03, -1.87471450e-01, 0.00000000e+00, -5.82748020e+01, 0.00000000e+00, 0.00000000e+00, -1.49951002e+01, 1.53163918e+02, 0.00000000e+00, -6.08325298e+00, -2.81067144e+00, -3.79273129e+00, -6.12248372e-01, 0.00000000e+00, -2.8369477087, 2.0373710182, 10.0000000000, 271.9204709459, 0.5593352954
         440, -1.87509249e-01, 3.18283828e-03, 0.00000000e+00, 0.00000000e+00, 0.00000000e+00, -1.40326329e-01, 3.18283828e-03, -1.87509249e-01, 0.00000000e+00, -5.89125908e+01, 0.00000000e+00, 0.00000000e+00, -1.49066544e+01, 1.53308803e+02, 0.00000000e+00, -6.10394310e+00, -2.84290417e+00, -3.81106757e+00, -6.33448180e-01, 0.00000000e+00, -2.8598603692, 2.0686193703, 10.0000000000, 278.4927947269, 0.5720626394
         450, -1.87546101e-01, 3.15090608e-03, 0.00000000e+00, 0.00000000e+00, 0.00000000e+00, -1.40339576e-01, 3.15090608e-03, -1.87546101e-01, 0.00000000e+00, -5.95213238e+01, 0.00000000e+00, 0.00000000e+00, -1.48241946e+01, 1.53450605e+02, 0.00000000e+00, -6.12401785e+00, -2.87574014e+00, -3.82886583e+00, -6.54119332e-01, 0.00000000e+00, -2.8832252479, 2.0976366680, 10.0000000000, 285.0261497841, 0.5850861748
         460, -1.87582083e-01, 3.12121791e-03, 0.00000000e+00, 0.00000000e+00, 0.00000000e+00, -1.40352913e-01, 3.12121791e-03, -1.87582083e-01, 0.00000000e+00, -6.00990024e+01, 0.00000000e+00, 0.00000000e+00, -1.47469960e+01, 1.53589259e+02, 0.00000000e+00, -6.14388005e+00, -2.90924675e+00, -3.84660240e+00, -6.74663666e-01, 0.00000000e+00, -2.9072799405, 2.1246873629, 10.0000000000, 291.6214056847, 0.5977940877
         470, -1.87617241e-01, 3.09371820e-03, 0.00000000e+00, 0.00000000e+00, 0.00000000e+00, -1.40366387e-01, 3.09371820e-03, -1.87617241e-01, 0.00000000e+00, -6.06445801e+01, 0.00000000e+00, 0.00000000e+00, -1.46740707e+01, 1.53724835e+02, 0.00000000e+00, -6.16375608e+00, -2.94349446e+00, -3.86437672e+00, -6.95283208e-01, 0.00000000e+00, -2.9323563867, 2.1499536326, 10.0000000000, 298.3649906699, 0.6105725686
         480, -1.87651790e-01, 3.06852061e-03, 0.00000000e+00, 0.00000000e+00, 0.00000000e+00, -1.40380749e-01, 3.06852061e-03, -1.87651790e-01, 0.00000000e+00, -6.11538308e+01, 0.00000000e+00, 0.00000000e+00, -1.46045963e+01, 1.53856332e+02, 0.00000000e+00, -6.18805760e+00, -2.97845120e+00, -3.88531405e+00, -7.20297214e-01, 0.00000000e+00, -2.9590632690, 2.1645971700, 10.0000000000, 299.7000000000, 0.6234198610
         490, -1.87685328e-01, 3.04578129e-03, 0.00000000e+00, 0.00000000e+00, 0.00000000e+00, -1.40395701e-01, 3.04578129e-03, -1.87685328e-01, 0.00000000e+00, -6.16214068e+01, 0.00000000e+00, 0.00000000e+00, -1.45386066e+01, 1.53982232e+02, 0.00000000e+00, -6.21681005e+00, -3.01373709e+00, -3.91145123e+00, -7.49626163e-01, 0.00000000e+00, -2.9867046019, 2.1763074603, 10.0000000000, 299.7000000000, 0.6362028122
         500, -1.87717478e-01, 3.02525637e-03, 0.00000000e+00, 0.00000000e+00, 0.00000000e+00, -1.40410537e-01, 3.02525637e-03, -1.87717478e-01, 0.00000000e+00, -6.20501057e+01, 0.00000000e+00, 0.00000000e+00, -1.44750243e+01, 1.54103089e+02, 0.00000000e+00, -6.24530857e+00, -3.04925776e+00, -3.93760418e+00, -7.78796754e-01, 0.00000000e+00, -3.0152460045, 2.1863474217, 10.0000000000, 299.7000000000, 0.6490256548
         510, -1.87748249e-01, 3.00670989e-03, 0.00000000e+00, 0.00000000e+00, 0.00000000e+00, -1.40425303e-01, 3.00670989e-03, -1.87748249e-01, 0.00000000e+00, -6.24430877e+01, 0.00000000e+00, 0.00000000e+00, -1.44128516e+01, 1.54219399e+02, 0.00000000e+00, -6.27507702e+00, -3.08504761e+00, -3.96487105e+00, -8.09301282e-01, 0.00000000e+00, -3.0448738765, 2.1948442194, 10.0000000000, 299.7000000000, 0.6619197408
         520, -1.87777473e-01, 2.98993573e-03, 0.00000000e+00, 0.00000000e+00, 0.00000000e+00, -1.40439627e-01, 2.98993573e-03, -1.87777473e-01, 0.00000000e+00, -6.28031805e+01, 0.00000000e+00, 0.00000000e+00, -1.43514009e+01, 1.54331603e+02, 0.00000000e+00, -6.30496622e+00, -3.12109253e+00, -3.99293152e+00, -8.40009791e-01, 0.00000000e+00, -3.0754275521, 2.2019714746, 10.0000000000, 299.7000000000, 0.6746136149
         530, -1.87805280e-01, 2.97475336e-03, 0.00000000e+00, 0.00000000e+00, 0.00000000e+00, -1.40453602e-01, 2.97475336e-03, -1.87805280e-01, 0.00000000e+00, -6.31330590e+01, 0.00000000e+00, 0.00000000e+00, -1.42901715e+01, 1.54440103e+02, 0.00000000e+00, -6.33431383e+00, -3.15743857e+00, -4.02047343e+00, -8.70332301e-01, 0.00000000e+00, -3.1066767738, 2.2077785038, 10.0000000000, 299.7000000000, 0.6876252453
         540, -1.87831801e-01, 2.96100233e-03, 0.00000000e+00, 0.00000000e+00, 0.00000000e+00, -1.40467407e-01, 2.96100233e-03, -1.87831801e-01, 0.00000000e+00, -6.34352089e+01, 0.00000000e+00, 0.00000000e+00, -1.42288215e+01, 1.54545255e+02, 0.00000000e+00, -6.36469159e+00, -3.19413518e+00, -4.04905265e+00, -9.01825794e-01, 0.00000000e+00, -3.1387242425, 2.2123989332, 10.0000000000, 299.7000000000, 0.7004827023
         550, -1.87856958e-01, 2.94853986e-03, 0.00000000e+00, 0.00000000e+00, 0.00000000e+00, -1.40480856e-01, 2.94853986e-03, -1.87856958e-01, 0.00000000e+00, -6.37118600e+01, 0.00000000e+00, 0.00000000e+00, -1.41671370e+01, 1.54647379e+02, 0.00000000e+00, -6.39538717e+00, -3.23112944e+00, -4.07843681e+00, -9.33774915e-01, 0.00000000e+00, -3.1716482270, 2.2159800706, 10.0000000000, 299.7000000000, 0.7131265322
         560, -1.87880823e-01, 2.93723898e-03, 0.00000000e+00, 0.00000000e+00, 0.00000000e+00, -1.40494003e-01, 2.93723898e-03, -1.87880823e-01, 0.00000000e+00, -6.39651127e+01, 0.00000000e+00, 0.00000000e+00, -1.41050045e+01, 1.54746754e+02, 0.00000000e+00, -6.42672963e+00, -3.26845004e+00, -4.10875658e+00, -9.66576716e-01, 0.00000000e+00, -3.2051175207, 2.2185816161, 10.0000000000, 299.7000000000, 0.7258092364
         570, -1.87903377e-01, 2.92698677e-03, 0.00000000e+00, 0.00000000e+00, 0.00000000e+00, -1.40506763e-01, 2.92698677e-03, -1.87903377e-01, 0.00000000e+00, -6.41968658e+01, 0.00000000e+00, 0.00000000e+00, -1.40423818e+01, 1.54843628e+02, 0.00000000e+00, -6.45882240e+00, -3.30608542e+00, -4.13997958e+00, -1.00035305e+00, 0.00000000e+00, -3.2392761420, 2.2203186665, 10.0000000000, 299.7000000000, 0.7384827614
         580, -1.87924608e-01, 2.91768242e-03, 0.00000000e+00, 0.00000000e+00, 0.00000000e+00, -1.40519023e-01, 2.91768242e-03, -1.87924608e-01, 0.00000000e+00, -6.44088633e+01, 0.00000000e+00, 0.00000000e+00, -1.39792788e+01, 1.54938224e+02, 0.00000000e+00, -6.49092363e+00, -3.34400346e+00, -4.17167603e+00, -1.03438639e+00, 0.00000000e+00, -3.2741099776, 2.2212647124, 10.0000000000, 299.7000000000, 0.7510620395
         590, -1.87944594e-01, 2.90923611e-03, 0.00000000e+00, 0.00000000e+00, 0.00000000e+00, -1.40530832e-01, 2.90923611e-03, -1.87944594e-01, 0.00000000e+00, -6.46027297e+01, 0.00000000e+00, 0.00000000e+00, -1.39157582e+01, 1.55030713e+02, 0.00000000e+00, -6.52339342e+00, -3.38220062e+00, -4.20403688e+00, -1.06911157e+00, 0.00000000e+00, -3.3096229232, 2.2214738463, 10.0000000000, 299.7000000000, 0.7638243794
         600, -1.87963337e-01, 2.90156810e-03, 0.00000000e+00, 0.00000000e+00, 0.00000000e+00, -1.40542111e-01, 2.90156810e-03, -1.87963337e-01, 0.00000000e+00, -6.47799158e+01, 0.00000000e+00, 0.00000000e+00, -1.38519115e+01, 1.55121242e+02, 0.00000000e+00, -6.55569040e+00, -3.42064726e+00, -4.23704393e+00, -1.10399981e+00, 0.00000000e+00, -3.3456022741, 2.2210378825, 10.0000000000, 299.7000000000, 0.7764170527
         610, -1.87980944e-01, 2.89460708e-03, 0.00000000e+00, 0.00000000e+00, 0.00000000e+00, -1.40552937e-01, 2.89460708e-03, -1.87980944e-01, 0.00000000e+00, -6.49417826e+01, 0.00000000e+00, 0.00000000e+00, -1.37878363e+01, 1.55209936e+02, 0.00000000e+00, -6.58775752e+00, -3.45939256e+00, -4.26996586e+00, -1.13907130e+00, 0.00000000e+00, -3.3818162115, 2.2199831325, 10.0000000000, 299.7000000000, 0.7892780860
         620, -1.87997458e-01, 2.88828871e-03, 0.00000000e+00, 0.00000000e+00, 0.00000000e+00, -1.40563321e-01, 2.88828871e-03, -1.87997458e-01, 0.00000000e+00, -6.50895658e+01, 0.00000000e+00, 0.00000000e+00, -1.37236296e+01, 1.55296903e+02, 0.00000000e+00, -6.62037957e+00, -3.49843785e+00, -4.30388114e+00, -1.17518020e+00, 0.00000000e+00, -3.4184010143, 2.2183891489, 10.0000000000, 299.7000000000, 0.8018609166
         630, -1.88012882e-01, 2.88255460e-03, 0.00000000e+00, 0.00000000e+00, 0.00000000e+00, -1.40573193e-01, 2.88255460e-03, -1.88012882e-01, 0.00000000e+00, -6.52243958e+01, 0.00000000e+00, 0.00000000e+00, -1.36593876e+01, 1.55382235e+02, 0.00000000e+00, -6.65306555e+00, -3.53773112e+00, -4.33862053e+00, -1.21189963e+00, 0.00000000e+00, -3.4553824952, 2.2163071063, 10.0000000000, 299.7000000000, 0.8145147244
         640, -1.88027262e-01, 2.87735173e-03, 0.00000000e+00, 0.00000000e+00, 0.00000000e+00, -1.40582550e-01, 2.87735173e-03, -1.88027262e-01, 0.00000000e+00, -6.53473329e+01, 0.00000000e+00, 0.00000000e+00, -1.35952051e+01, 1.55465988e+02, 0.00000000e+00, -6.68554874e+00, -3.57724831e+00, -4.37383442e+00, -1.24903242e+00, 0.00000000e+00, -3.4927560772, 2.2137712989, 10.0000000000, 299.7000000000, 0.8272312045
         650, -1.88040649e-01, 2.87263194e-03, 0.00000000e+00, 0.00000000e+00, 0.00000000e+00, -1.40591402e-01, 2.87263194e-03, -1.88040649e-01, 0.00000000e+00, -6.54593604e+01, 0.00000000e+00, 0.00000000e+00, -1.35311728e+01, 1.55548188e+02, 0.00000000e+00, -6.71774449e+00, -3.61697981e+00, -4.40957808e+00, -1.28657692e+00, 0.00000000e+00, -3.5305295319, 2.2108209529, 10.0000000000, 299.7000000000, 0.8398993293
         660, -1.88053092e-01, 2.86835137e-03, 0.00000000e+00, 0.00000000e+00, 0.00000000e+00, -1.40599755e-01, 2.86835137e-03, -1.88053092e-01, 0.00000000e+00, -6.55613863e+01, 0.00000000e+00, 0.00000000e+00, -1.34673757e+01, 1.55628892e+02, 0.00000000e+00, -6.74953371e+00, -3.65688905e+00, -4.44592938e+00, -1.32449690e+00, 0.00000000e+00, -3.5687321470, 2.2074939115, 10.0000000000, 299.7000000000, 0.8525839607
         670, -1.88064637e-01, 2.86447018e-03, 0.00000000e+00, 0.00000000e+00, 0.00000000e+00, -1.40607614e-01, 2.86447018e-03, -1.88064637e-01, 0.00000000e+00, -6.56542484e+01, 0.00000000e+00, 0.00000000e+00, -1.34038926e+01, 1.55708144e+02, 0.00000000e+00, -6.78097197e+00, -3.69698112e+00, -4.48276624e+00, -1.36296759e+00, 0.00000000e+00, -3.6072327411, 2.2038224340, 10.0000000000, 299.7000000000, 0.8652318358
         680, -1.88075321e-01, 2.86095202e-03, 0.00000000e+00, 0.00000000e+00, 0.00000000e+00, -1.40614965e-01, 2.86095202e-03, -1.88075321e-01, 0.00000000e+00, -6.57387189e+01, 0.00000000e+00, 0.00000000e+00, -1.33407933e+01, 1.55785952e+02, 0.00000000e+00, -6.81151376e+00, -3.73723244e+00, -4.51977029e+00, -1.40143056e+00, 0.00000000e+00, -3.6459520721, 2.1998380469, 10.0000000000, 299.7000000000, 0.8778150956
         690, -1.88085215e-01, 2.85776369e-03, 0.00000000e+00, 0.00000000e+00, 0.00000000e+00, -1.40621857e-01, 2.85776369e-03, -1.88085215e-01, 0.00000000e+00, -6.58155242e+01, 0.00000000e+00, 0.00000000e+00, -1.32781401e+01, 1.55862318e+02, 0.00000000e+00, -6.84114523e+00, -3.77766293e+00, -4.55680575e+00, -1.43997960e+00, 0.00000000e+00, -3.6847880499, 2.1955576062, 10.0000000000, 299.7000000000, 0.8916627566
         700, -1.88094372e-01, 2.85487490e-03, 0.00000000e+00, 0.00000000e+00, 0.00000000e+00, -1.40628315e-01, 2.85487490e-03, -1.88094372e-01, 0.00000000e+00, -6.58853290e+01, 0.00000000e+00, 0.00000000e+00, -1.32159878e+01, 1.55937249e+02, 0.00000000e+00, -6.87006550e+00, -3.81826898e+00, -4.59434738e+00, -1.47896233e+00, 0.00000000e+00, -3.7238889046, 2.1910122307, 10.0000000000, 299.7000000000, 0.9099414309